#  #

8000  atoms
2  atom types

0.00000000 42.10000000  xlo xhi
0.00000000 42.10000000  ylo yhi
0.00000000 42.10000000  zlo zhi

Atoms

1   1  0.00000000 0.00000000 0.00000000
2   1  2.10500000 2.10500000 2.10500000
3   1  2.10500000 0.00000000 2.10500000
4   1  0.00000000 2.10500000 2.10500000
5   2  2.10500000 0.00000000 0.00000000
6   2  0.00000000 2.10500000 0.00000000
7   2  0.00000000 0.00000000 2.10500000
8   2  2.10500000 2.10500000 2.10500000
9   1  0.00000000 0.00000000 4.21000000
10   1  2.10500000 2.10500000 6.31500000
11   1  2.10500000 0.00000000 6.31500000
12   1  0.00000000 2.10500000 6.31500000
13   2  2.10500000 0.00000000 4.21000000
14   2  0.00000000 2.10500000 4.21000000
15   2  0.00000000 0.00000000 6.31500000
16   2  2.10500000 2.10500000 6.31500000
17   1  0.00000000 0.00000000 8.42000000
18   1  2.10500000 2.10500000 10.52500000
19   1  2.10500000 0.00000000 10.52500000
20   1  0.00000000 2.10500000 10.52500000
21   2  2.10500000 0.00000000 8.42000000
22   2  0.00000000 2.10500000 8.42000000
23   2  0.00000000 0.00000000 10.52500000
24   2  2.10500000 2.10500000 10.52500000
25   1  0.00000000 0.00000000 12.63000000
26   1  2.10500000 2.10500000 14.73500000
27   1  2.10500000 0.00000000 14.73500000
28   1  0.00000000 2.10500000 14.73500000
29   2  2.10500000 0.00000000 12.63000000
30   2  0.00000000 2.10500000 12.63000000
31   2  0.00000000 0.00000000 14.73500000
32   2  2.10500000 2.10500000 14.73500000
33   1  0.00000000 0.00000000 16.84000000
34   1  2.10500000 2.10500000 18.94500000
35   1  2.10500000 0.00000000 18.94500000
36   1  0.00000000 2.10500000 18.94500000
37   2  2.10500000 0.00000000 16.84000000
38   2  0.00000000 2.10500000 16.84000000
39   2  0.00000000 0.00000000 18.94500000
40   2  2.10500000 2.10500000 18.94500000
41   1  0.00000000 0.00000000 21.05000000
42   1  2.10500000 2.10500000 23.15500000
43   1  2.10500000 0.00000000 23.15500000
44   1  0.00000000 2.10500000 23.15500000
45   2  2.10500000 0.00000000 21.05000000
46   2  0.00000000 2.10500000 21.05000000
47   2  0.00000000 0.00000000 23.15500000
48   2  2.10500000 2.10500000 23.15500000
49   1  0.00000000 0.00000000 25.26000000
50   1  2.10500000 2.10500000 27.36500000
51   1  2.10500000 0.00000000 27.36500000
52   1  0.00000000 2.10500000 27.36500000
53   2  2.10500000 0.00000000 25.26000000
54   2  0.00000000 2.10500000 25.26000000
55   2  0.00000000 0.00000000 27.36500000
56   2  2.10500000 2.10500000 27.36500000
57   1  0.00000000 0.00000000 29.47000000
58   1  2.10500000 2.10500000 31.57500000
59   1  2.10500000 0.00000000 31.57500000
60   1  0.00000000 2.10500000 31.57500000
61   2  2.10500000 0.00000000 29.47000000
62   2  0.00000000 2.10500000 29.47000000
63   2  0.00000000 0.00000000 31.57500000
64   2  2.10500000 2.10500000 31.57500000
65   1  0.00000000 0.00000000 33.68000000
66   1  2.10500000 2.10500000 35.78500000
67   1  2.10500000 0.00000000 35.78500000
68   1  0.00000000 2.10500000 35.78500000
69   2  2.10500000 0.00000000 33.68000000
70   2  0.00000000 2.10500000 33.68000000
71   2  0.00000000 0.00000000 35.78500000
72   2  2.10500000 2.10500000 35.78500000
73   1  0.00000000 0.00000000 37.89000000
74   1  2.10500000 2.10500000 39.99500000
75   1  2.10500000 0.00000000 39.99500000
76   1  0.00000000 2.10500000 39.99500000
77   2  2.10500000 0.00000000 37.89000000
78   2  0.00000000 2.10500000 37.89000000
79   2  0.00000000 0.00000000 39.99500000
80   2  2.10500000 2.10500000 39.99500000
81   1  0.00000000 4.21000000 0.00000000
82   1  2.10500000 6.31500000 2.10500000
83   1  2.10500000 4.21000000 2.10500000
84   1  0.00000000 6.31500000 2.10500000
85   2  2.10500000 4.21000000 0.00000000
86   2  0.00000000 6.31500000 0.00000000
87   2  0.00000000 4.21000000 2.10500000
88   2  2.10500000 6.31500000 2.10500000
89   1  0.00000000 4.21000000 4.21000000
90   1  2.10500000 6.31500000 6.31500000
91   1  2.10500000 4.21000000 6.31500000
92   1  0.00000000 6.31500000 6.31500000
93   2  2.10500000 4.21000000 4.21000000
94   2  0.00000000 6.31500000 4.21000000
95   2  0.00000000 4.21000000 6.31500000
96   2  2.10500000 6.31500000 6.31500000
97   1  0.00000000 4.21000000 8.42000000
98   1  2.10500000 6.31500000 10.52500000
99   1  2.10500000 4.21000000 10.52500000
100   1  0.00000000 6.31500000 10.52500000
101   2  2.10500000 4.21000000 8.42000000
102   2  0.00000000 6.31500000 8.42000000
103   2  0.00000000 4.21000000 10.52500000
104   2  2.10500000 6.31500000 10.52500000
105   1  0.00000000 4.21000000 12.63000000
106   1  2.10500000 6.31500000 14.73500000
107   1  2.10500000 4.21000000 14.73500000
108   1  0.00000000 6.31500000 14.73500000
109   2  2.10500000 4.21000000 12.63000000
110   2  0.00000000 6.31500000 12.63000000
111   2  0.00000000 4.21000000 14.73500000
112   2  2.10500000 6.31500000 14.73500000
113   1  0.00000000 4.21000000 16.84000000
114   1  2.10500000 6.31500000 18.94500000
115   1  2.10500000 4.21000000 18.94500000
116   1  0.00000000 6.31500000 18.94500000
117   2  2.10500000 4.21000000 16.84000000
118   2  0.00000000 6.31500000 16.84000000
119   2  0.00000000 4.21000000 18.94500000
120   2  2.10500000 6.31500000 18.94500000
121   1  0.00000000 4.21000000 21.05000000
122   1  2.10500000 6.31500000 23.15500000
123   1  2.10500000 4.21000000 23.15500000
124   1  0.00000000 6.31500000 23.15500000
125   2  2.10500000 4.21000000 21.05000000
126   2  0.00000000 6.31500000 21.05000000
127   2  0.00000000 4.21000000 23.15500000
128   2  2.10500000 6.31500000 23.15500000
129   1  0.00000000 4.21000000 25.26000000
130   1  2.10500000 6.31500000 27.36500000
131   1  2.10500000 4.21000000 27.36500000
132   1  0.00000000 6.31500000 27.36500000
133   2  2.10500000 4.21000000 25.26000000
134   2  0.00000000 6.31500000 25.26000000
135   2  0.00000000 4.21000000 27.36500000
136   2  2.10500000 6.31500000 27.36500000
137   1  0.00000000 4.21000000 29.47000000
138   1  2.10500000 6.31500000 31.57500000
139   1  2.10500000 4.21000000 31.57500000
140   1  0.00000000 6.31500000 31.57500000
141   2  2.10500000 4.21000000 29.47000000
142   2  0.00000000 6.31500000 29.47000000
143   2  0.00000000 4.21000000 31.57500000
144   2  2.10500000 6.31500000 31.57500000
145   1  0.00000000 4.21000000 33.68000000
146   1  2.10500000 6.31500000 35.78500000
147   1  2.10500000 4.21000000 35.78500000
148   1  0.00000000 6.31500000 35.78500000
149   2  2.10500000 4.21000000 33.68000000
150   2  0.00000000 6.31500000 33.68000000
151   2  0.00000000 4.21000000 35.78500000
152   2  2.10500000 6.31500000 35.78500000
153   1  0.00000000 4.21000000 37.89000000
154   1  2.10500000 6.31500000 39.99500000
155   1  2.10500000 4.21000000 39.99500000
156   1  0.00000000 6.31500000 39.99500000
157   2  2.10500000 4.21000000 37.89000000
158   2  0.00000000 6.31500000 37.89000000
159   2  0.00000000 4.21000000 39.99500000
160   2  2.10500000 6.31500000 39.99500000
161   1  0.00000000 8.42000000 0.00000000
162   1  2.10500000 10.52500000 2.10500000
163   1  2.10500000 8.42000000 2.10500000
164   1  0.00000000 10.52500000 2.10500000
165   2  2.10500000 8.42000000 0.00000000
166   2  0.00000000 10.52500000 0.00000000
167   2  0.00000000 8.42000000 2.10500000
168   2  2.10500000 10.52500000 2.10500000
169   1  0.00000000 8.42000000 4.21000000
170   1  2.10500000 10.52500000 6.31500000
171   1  2.10500000 8.42000000 6.31500000
172   1  0.00000000 10.52500000 6.31500000
173   2  2.10500000 8.42000000 4.21000000
174   2  0.00000000 10.52500000 4.21000000
175   2  0.00000000 8.42000000 6.31500000
176   2  2.10500000 10.52500000 6.31500000
177   1  0.00000000 8.42000000 8.42000000
178   1  2.10500000 10.52500000 10.52500000
179   1  2.10500000 8.42000000 10.52500000
180   1  0.00000000 10.52500000 10.52500000
181   2  2.10500000 8.42000000 8.42000000
182   2  0.00000000 10.52500000 8.42000000
183   2  0.00000000 8.42000000 10.52500000
184   2  2.10500000 10.52500000 10.52500000
185   1  0.00000000 8.42000000 12.63000000
186   1  2.10500000 10.52500000 14.73500000
187   1  2.10500000 8.42000000 14.73500000
188   1  0.00000000 10.52500000 14.73500000
189   2  2.10500000 8.42000000 12.63000000
190   2  0.00000000 10.52500000 12.63000000
191   2  0.00000000 8.42000000 14.73500000
192   2  2.10500000 10.52500000 14.73500000
193   1  0.00000000 8.42000000 16.84000000
194   1  2.10500000 10.52500000 18.94500000
195   1  2.10500000 8.42000000 18.94500000
196   1  0.00000000 10.52500000 18.94500000
197   2  2.10500000 8.42000000 16.84000000
198   2  0.00000000 10.52500000 16.84000000
199   2  0.00000000 8.42000000 18.94500000
200   2  2.10500000 10.52500000 18.94500000
201   1  0.00000000 8.42000000 21.05000000
202   1  2.10500000 10.52500000 23.15500000
203   1  2.10500000 8.42000000 23.15500000
204   1  0.00000000 10.52500000 23.15500000
205   2  2.10500000 8.42000000 21.05000000
206   2  0.00000000 10.52500000 21.05000000
207   2  0.00000000 8.42000000 23.15500000
208   2  2.10500000 10.52500000 23.15500000
209   1  0.00000000 8.42000000 25.26000000
210   1  2.10500000 10.52500000 27.36500000
211   1  2.10500000 8.42000000 27.36500000
212   1  0.00000000 10.52500000 27.36500000
213   2  2.10500000 8.42000000 25.26000000
214   2  0.00000000 10.52500000 25.26000000
215   2  0.00000000 8.42000000 27.36500000
216   2  2.10500000 10.52500000 27.36500000
217   1  0.00000000 8.42000000 29.47000000
218   1  2.10500000 10.52500000 31.57500000
219   1  2.10500000 8.42000000 31.57500000
220   1  0.00000000 10.52500000 31.57500000
221   2  2.10500000 8.42000000 29.47000000
222   2  0.00000000 10.52500000 29.47000000
223   2  0.00000000 8.42000000 31.57500000
224   2  2.10500000 10.52500000 31.57500000
225   1  0.00000000 8.42000000 33.68000000
226   1  2.10500000 10.52500000 35.78500000
227   1  2.10500000 8.42000000 35.78500000
228   1  0.00000000 10.52500000 35.78500000
229   2  2.10500000 8.42000000 33.68000000
230   2  0.00000000 10.52500000 33.68000000
231   2  0.00000000 8.42000000 35.78500000
232   2  2.10500000 10.52500000 35.78500000
233   1  0.00000000 8.42000000 37.89000000
234   1  2.10500000 10.52500000 39.99500000
235   1  2.10500000 8.42000000 39.99500000
236   1  0.00000000 10.52500000 39.99500000
237   2  2.10500000 8.42000000 37.89000000
238   2  0.00000000 10.52500000 37.89000000
239   2  0.00000000 8.42000000 39.99500000
240   2  2.10500000 10.52500000 39.99500000
241   1  0.00000000 12.63000000 0.00000000
242   1  2.10500000 14.73500000 2.10500000
243   1  2.10500000 12.63000000 2.10500000
244   1  0.00000000 14.73500000 2.10500000
245   2  2.10500000 12.63000000 0.00000000
246   2  0.00000000 14.73500000 0.00000000
247   2  0.00000000 12.63000000 2.10500000
248   2  2.10500000 14.73500000 2.10500000
249   1  0.00000000 12.63000000 4.21000000
250   1  2.10500000 14.73500000 6.31500000
251   1  2.10500000 12.63000000 6.31500000
252   1  0.00000000 14.73500000 6.31500000
253   2  2.10500000 12.63000000 4.21000000
254   2  0.00000000 14.73500000 4.21000000
255   2  0.00000000 12.63000000 6.31500000
256   2  2.10500000 14.73500000 6.31500000
257   1  0.00000000 12.63000000 8.42000000
258   1  2.10500000 14.73500000 10.52500000
259   1  2.10500000 12.63000000 10.52500000
260   1  0.00000000 14.73500000 10.52500000
261   2  2.10500000 12.63000000 8.42000000
262   2  0.00000000 14.73500000 8.42000000
263   2  0.00000000 12.63000000 10.52500000
264   2  2.10500000 14.73500000 10.52500000
265   1  0.00000000 12.63000000 12.63000000
266   1  2.10500000 14.73500000 14.73500000
267   1  2.10500000 12.63000000 14.73500000
268   1  0.00000000 14.73500000 14.73500000
269   2  2.10500000 12.63000000 12.63000000
270   2  0.00000000 14.73500000 12.63000000
271   2  0.00000000 12.63000000 14.73500000
272   2  2.10500000 14.73500000 14.73500000
273   1  0.00000000 12.63000000 16.84000000
274   1  2.10500000 14.73500000 18.94500000
275   1  2.10500000 12.63000000 18.94500000
276   1  0.00000000 14.73500000 18.94500000
277   2  2.10500000 12.63000000 16.84000000
278   2  0.00000000 14.73500000 16.84000000
279   2  0.00000000 12.63000000 18.94500000
280   2  2.10500000 14.73500000 18.94500000
281   1  0.00000000 12.63000000 21.05000000
282   1  2.10500000 14.73500000 23.15500000
283   1  2.10500000 12.63000000 23.15500000
284   1  0.00000000 14.73500000 23.15500000
285   2  2.10500000 12.63000000 21.05000000
286   2  0.00000000 14.73500000 21.05000000
287   2  0.00000000 12.63000000 23.15500000
288   2  2.10500000 14.73500000 23.15500000
289   1  0.00000000 12.63000000 25.26000000
290   1  2.10500000 14.73500000 27.36500000
291   1  2.10500000 12.63000000 27.36500000
292   1  0.00000000 14.73500000 27.36500000
293   2  2.10500000 12.63000000 25.26000000
294   2  0.00000000 14.73500000 25.26000000
295   2  0.00000000 12.63000000 27.36500000
296   2  2.10500000 14.73500000 27.36500000
297   1  0.00000000 12.63000000 29.47000000
298   1  2.10500000 14.73500000 31.57500000
299   1  2.10500000 12.63000000 31.57500000
300   1  0.00000000 14.73500000 31.57500000
301   2  2.10500000 12.63000000 29.47000000
302   2  0.00000000 14.73500000 29.47000000
303   2  0.00000000 12.63000000 31.57500000
304   2  2.10500000 14.73500000 31.57500000
305   1  0.00000000 12.63000000 33.68000000
306   1  2.10500000 14.73500000 35.78500000
307   1  2.10500000 12.63000000 35.78500000
308   1  0.00000000 14.73500000 35.78500000
309   2  2.10500000 12.63000000 33.68000000
310   2  0.00000000 14.73500000 33.68000000
311   2  0.00000000 12.63000000 35.78500000
312   2  2.10500000 14.73500000 35.78500000
313   1  0.00000000 12.63000000 37.89000000
314   1  2.10500000 14.73500000 39.99500000
315   1  2.10500000 12.63000000 39.99500000
316   1  0.00000000 14.73500000 39.99500000
317   2  2.10500000 12.63000000 37.89000000
318   2  0.00000000 14.73500000 37.89000000
319   2  0.00000000 12.63000000 39.99500000
320   2  2.10500000 14.73500000 39.99500000
321   1  0.00000000 16.84000000 0.00000000
322   1  2.10500000 18.94500000 2.10500000
323   1  2.10500000 16.84000000 2.10500000
324   1  0.00000000 18.94500000 2.10500000
325   2  2.10500000 16.84000000 0.00000000
326   2  0.00000000 18.94500000 0.00000000
327   2  0.00000000 16.84000000 2.10500000
328   2  2.10500000 18.94500000 2.10500000
329   1  0.00000000 16.84000000 4.21000000
330   1  2.10500000 18.94500000 6.31500000
331   1  2.10500000 16.84000000 6.31500000
332   1  0.00000000 18.94500000 6.31500000
333   2  2.10500000 16.84000000 4.21000000
334   2  0.00000000 18.94500000 4.21000000
335   2  0.00000000 16.84000000 6.31500000
336   2  2.10500000 18.94500000 6.31500000
337   1  0.00000000 16.84000000 8.42000000
338   1  2.10500000 18.94500000 10.52500000
339   1  2.10500000 16.84000000 10.52500000
340   1  0.00000000 18.94500000 10.52500000
341   2  2.10500000 16.84000000 8.42000000
342   2  0.00000000 18.94500000 8.42000000
343   2  0.00000000 16.84000000 10.52500000
344   2  2.10500000 18.94500000 10.52500000
345   1  0.00000000 16.84000000 12.63000000
346   1  2.10500000 18.94500000 14.73500000
347   1  2.10500000 16.84000000 14.73500000
348   1  0.00000000 18.94500000 14.73500000
349   2  2.10500000 16.84000000 12.63000000
350   2  0.00000000 18.94500000 12.63000000
351   2  0.00000000 16.84000000 14.73500000
352   2  2.10500000 18.94500000 14.73500000
353   1  0.00000000 16.84000000 16.84000000
354   1  2.10500000 18.94500000 18.94500000
355   1  2.10500000 16.84000000 18.94500000
356   1  0.00000000 18.94500000 18.94500000
357   2  2.10500000 16.84000000 16.84000000
358   2  0.00000000 18.94500000 16.84000000
359   2  0.00000000 16.84000000 18.94500000
360   2  2.10500000 18.94500000 18.94500000
361   1  0.00000000 16.84000000 21.05000000
362   1  2.10500000 18.94500000 23.15500000
363   1  2.10500000 16.84000000 23.15500000
364   1  0.00000000 18.94500000 23.15500000
365   2  2.10500000 16.84000000 21.05000000
366   2  0.00000000 18.94500000 21.05000000
367   2  0.00000000 16.84000000 23.15500000
368   2  2.10500000 18.94500000 23.15500000
369   1  0.00000000 16.84000000 25.26000000
370   1  2.10500000 18.94500000 27.36500000
371   1  2.10500000 16.84000000 27.36500000
372   1  0.00000000 18.94500000 27.36500000
373   2  2.10500000 16.84000000 25.26000000
374   2  0.00000000 18.94500000 25.26000000
375   2  0.00000000 16.84000000 27.36500000
376   2  2.10500000 18.94500000 27.36500000
377   1  0.00000000 16.84000000 29.47000000
378   1  2.10500000 18.94500000 31.57500000
379   1  2.10500000 16.84000000 31.57500000
380   1  0.00000000 18.94500000 31.57500000
381   2  2.10500000 16.84000000 29.47000000
382   2  0.00000000 18.94500000 29.47000000
383   2  0.00000000 16.84000000 31.57500000
384   2  2.10500000 18.94500000 31.57500000
385   1  0.00000000 16.84000000 33.68000000
386   1  2.10500000 18.94500000 35.78500000
387   1  2.10500000 16.84000000 35.78500000
388   1  0.00000000 18.94500000 35.78500000
389   2  2.10500000 16.84000000 33.68000000
390   2  0.00000000 18.94500000 33.68000000
391   2  0.00000000 16.84000000 35.78500000
392   2  2.10500000 18.94500000 35.78500000
393   1  0.00000000 16.84000000 37.89000000
394   1  2.10500000 18.94500000 39.99500000
395   1  2.10500000 16.84000000 39.99500000
396   1  0.00000000 18.94500000 39.99500000
397   2  2.10500000 16.84000000 37.89000000
398   2  0.00000000 18.94500000 37.89000000
399   2  0.00000000 16.84000000 39.99500000
400   2  2.10500000 18.94500000 39.99500000
401   1  0.00000000 21.05000000 0.00000000
402   1  2.10500000 23.15500000 2.10500000
403   1  2.10500000 21.05000000 2.10500000
404   1  0.00000000 23.15500000 2.10500000
405   2  2.10500000 21.05000000 0.00000000
406   2  0.00000000 23.15500000 0.00000000
407   2  0.00000000 21.05000000 2.10500000
408   2  2.10500000 23.15500000 2.10500000
409   1  0.00000000 21.05000000 4.21000000
410   1  2.10500000 23.15500000 6.31500000
411   1  2.10500000 21.05000000 6.31500000
412   1  0.00000000 23.15500000 6.31500000
413   2  2.10500000 21.05000000 4.21000000
414   2  0.00000000 23.15500000 4.21000000
415   2  0.00000000 21.05000000 6.31500000
416   2  2.10500000 23.15500000 6.31500000
417   1  0.00000000 21.05000000 8.42000000
418   1  2.10500000 23.15500000 10.52500000
419   1  2.10500000 21.05000000 10.52500000
420   1  0.00000000 23.15500000 10.52500000
421   2  2.10500000 21.05000000 8.42000000
422   2  0.00000000 23.15500000 8.42000000
423   2  0.00000000 21.05000000 10.52500000
424   2  2.10500000 23.15500000 10.52500000
425   1  0.00000000 21.05000000 12.63000000
426   1  2.10500000 23.15500000 14.73500000
427   1  2.10500000 21.05000000 14.73500000
428   1  0.00000000 23.15500000 14.73500000
429   2  2.10500000 21.05000000 12.63000000
430   2  0.00000000 23.15500000 12.63000000
431   2  0.00000000 21.05000000 14.73500000
432   2  2.10500000 23.15500000 14.73500000
433   1  0.00000000 21.05000000 16.84000000
434   1  2.10500000 23.15500000 18.94500000
435   1  2.10500000 21.05000000 18.94500000
436   1  0.00000000 23.15500000 18.94500000
437   2  2.10500000 21.05000000 16.84000000
438   2  0.00000000 23.15500000 16.84000000
439   2  0.00000000 21.05000000 18.94500000
440   2  2.10500000 23.15500000 18.94500000
441   1  0.00000000 21.05000000 21.05000000
442   1  2.10500000 23.15500000 23.15500000
443   1  2.10500000 21.05000000 23.15500000
444   1  0.00000000 23.15500000 23.15500000
445   2  2.10500000 21.05000000 21.05000000
446   2  0.00000000 23.15500000 21.05000000
447   2  0.00000000 21.05000000 23.15500000
448   2  2.10500000 23.15500000 23.15500000
449   1  0.00000000 21.05000000 25.26000000
450   1  2.10500000 23.15500000 27.36500000
451   1  2.10500000 21.05000000 27.36500000
452   1  0.00000000 23.15500000 27.36500000
453   2  2.10500000 21.05000000 25.26000000
454   2  0.00000000 23.15500000 25.26000000
455   2  0.00000000 21.05000000 27.36500000
456   2  2.10500000 23.15500000 27.36500000
457   1  0.00000000 21.05000000 29.47000000
458   1  2.10500000 23.15500000 31.57500000
459   1  2.10500000 21.05000000 31.57500000
460   1  0.00000000 23.15500000 31.57500000
461   2  2.10500000 21.05000000 29.47000000
462   2  0.00000000 23.15500000 29.47000000
463   2  0.00000000 21.05000000 31.57500000
464   2  2.10500000 23.15500000 31.57500000
465   1  0.00000000 21.05000000 33.68000000
466   1  2.10500000 23.15500000 35.78500000
467   1  2.10500000 21.05000000 35.78500000
468   1  0.00000000 23.15500000 35.78500000
469   2  2.10500000 21.05000000 33.68000000
470   2  0.00000000 23.15500000 33.68000000
471   2  0.00000000 21.05000000 35.78500000
472   2  2.10500000 23.15500000 35.78500000
473   1  0.00000000 21.05000000 37.89000000
474   1  2.10500000 23.15500000 39.99500000
475   1  2.10500000 21.05000000 39.99500000
476   1  0.00000000 23.15500000 39.99500000
477   2  2.10500000 21.05000000 37.89000000
478   2  0.00000000 23.15500000 37.89000000
479   2  0.00000000 21.05000000 39.99500000
480   2  2.10500000 23.15500000 39.99500000
481   1  0.00000000 25.26000000 0.00000000
482   1  2.10500000 27.36500000 2.10500000
483   1  2.10500000 25.26000000 2.10500000
484   1  0.00000000 27.36500000 2.10500000
485   2  2.10500000 25.26000000 0.00000000
486   2  0.00000000 27.36500000 0.00000000
487   2  0.00000000 25.26000000 2.10500000
488   2  2.10500000 27.36500000 2.10500000
489   1  0.00000000 25.26000000 4.21000000
490   1  2.10500000 27.36500000 6.31500000
491   1  2.10500000 25.26000000 6.31500000
492   1  0.00000000 27.36500000 6.31500000
493   2  2.10500000 25.26000000 4.21000000
494   2  0.00000000 27.36500000 4.21000000
495   2  0.00000000 25.26000000 6.31500000
496   2  2.10500000 27.36500000 6.31500000
497   1  0.00000000 25.26000000 8.42000000
498   1  2.10500000 27.36500000 10.52500000
499   1  2.10500000 25.26000000 10.52500000
500   1  0.00000000 27.36500000 10.52500000
501   2  2.10500000 25.26000000 8.42000000
502   2  0.00000000 27.36500000 8.42000000
503   2  0.00000000 25.26000000 10.52500000
504   2  2.10500000 27.36500000 10.52500000
505   1  0.00000000 25.26000000 12.63000000
506   1  2.10500000 27.36500000 14.73500000
507   1  2.10500000 25.26000000 14.73500000
508   1  0.00000000 27.36500000 14.73500000
509   2  2.10500000 25.26000000 12.63000000
510   2  0.00000000 27.36500000 12.63000000
511   2  0.00000000 25.26000000 14.73500000
512   2  2.10500000 27.36500000 14.73500000
513   1  0.00000000 25.26000000 16.84000000
514   1  2.10500000 27.36500000 18.94500000
515   1  2.10500000 25.26000000 18.94500000
516   1  0.00000000 27.36500000 18.94500000
517   2  2.10500000 25.26000000 16.84000000
518   2  0.00000000 27.36500000 16.84000000
519   2  0.00000000 25.26000000 18.94500000
520   2  2.10500000 27.36500000 18.94500000
521   1  0.00000000 25.26000000 21.05000000
522   1  2.10500000 27.36500000 23.15500000
523   1  2.10500000 25.26000000 23.15500000
524   1  0.00000000 27.36500000 23.15500000
525   2  2.10500000 25.26000000 21.05000000
526   2  0.00000000 27.36500000 21.05000000
527   2  0.00000000 25.26000000 23.15500000
528   2  2.10500000 27.36500000 23.15500000
529   1  0.00000000 25.26000000 25.26000000
530   1  2.10500000 27.36500000 27.36500000
531   1  2.10500000 25.26000000 27.36500000
532   1  0.00000000 27.36500000 27.36500000
533   2  2.10500000 25.26000000 25.26000000
534   2  0.00000000 27.36500000 25.26000000
535   2  0.00000000 25.26000000 27.36500000
536   2  2.10500000 27.36500000 27.36500000
537   1  0.00000000 25.26000000 29.47000000
538   1  2.10500000 27.36500000 31.57500000
539   1  2.10500000 25.26000000 31.57500000
540   1  0.00000000 27.36500000 31.57500000
541   2  2.10500000 25.26000000 29.47000000
542   2  0.00000000 27.36500000 29.47000000
543   2  0.00000000 25.26000000 31.57500000
544   2  2.10500000 27.36500000 31.57500000
545   1  0.00000000 25.26000000 33.68000000
546   1  2.10500000 27.36500000 35.78500000
547   1  2.10500000 25.26000000 35.78500000
548   1  0.00000000 27.36500000 35.78500000
549   2  2.10500000 25.26000000 33.68000000
550   2  0.00000000 27.36500000 33.68000000
551   2  0.00000000 25.26000000 35.78500000
552   2  2.10500000 27.36500000 35.78500000
553   1  0.00000000 25.26000000 37.89000000
554   1  2.10500000 27.36500000 39.99500000
555   1  2.10500000 25.26000000 39.99500000
556   1  0.00000000 27.36500000 39.99500000
557   2  2.10500000 25.26000000 37.89000000
558   2  0.00000000 27.36500000 37.89000000
559   2  0.00000000 25.26000000 39.99500000
560   2  2.10500000 27.36500000 39.99500000
561   1  0.00000000 29.47000000 0.00000000
562   1  2.10500000 31.57500000 2.10500000
563   1  2.10500000 29.47000000 2.10500000
564   1  0.00000000 31.57500000 2.10500000
565   2  2.10500000 29.47000000 0.00000000
566   2  0.00000000 31.57500000 0.00000000
567   2  0.00000000 29.47000000 2.10500000
568   2  2.10500000 31.57500000 2.10500000
569   1  0.00000000 29.47000000 4.21000000
570   1  2.10500000 31.57500000 6.31500000
571   1  2.10500000 29.47000000 6.31500000
572   1  0.00000000 31.57500000 6.31500000
573   2  2.10500000 29.47000000 4.21000000
574   2  0.00000000 31.57500000 4.21000000
575   2  0.00000000 29.47000000 6.31500000
576   2  2.10500000 31.57500000 6.31500000
577   1  0.00000000 29.47000000 8.42000000
578   1  2.10500000 31.57500000 10.52500000
579   1  2.10500000 29.47000000 10.52500000
580   1  0.00000000 31.57500000 10.52500000
581   2  2.10500000 29.47000000 8.42000000
582   2  0.00000000 31.57500000 8.42000000
583   2  0.00000000 29.47000000 10.52500000
584   2  2.10500000 31.57500000 10.52500000
585   1  0.00000000 29.47000000 12.63000000
586   1  2.10500000 31.57500000 14.73500000
587   1  2.10500000 29.47000000 14.73500000
588   1  0.00000000 31.57500000 14.73500000
589   2  2.10500000 29.47000000 12.63000000
590   2  0.00000000 31.57500000 12.63000000
591   2  0.00000000 29.47000000 14.73500000
592   2  2.10500000 31.57500000 14.73500000
593   1  0.00000000 29.47000000 16.84000000
594   1  2.10500000 31.57500000 18.94500000
595   1  2.10500000 29.47000000 18.94500000
596   1  0.00000000 31.57500000 18.94500000
597   2  2.10500000 29.47000000 16.84000000
598   2  0.00000000 31.57500000 16.84000000
599   2  0.00000000 29.47000000 18.94500000
600   2  2.10500000 31.57500000 18.94500000
601   1  0.00000000 29.47000000 21.05000000
602   1  2.10500000 31.57500000 23.15500000
603   1  2.10500000 29.47000000 23.15500000
604   1  0.00000000 31.57500000 23.15500000
605   2  2.10500000 29.47000000 21.05000000
606   2  0.00000000 31.57500000 21.05000000
607   2  0.00000000 29.47000000 23.15500000
608   2  2.10500000 31.57500000 23.15500000
609   1  0.00000000 29.47000000 25.26000000
610   1  2.10500000 31.57500000 27.36500000
611   1  2.10500000 29.47000000 27.36500000
612   1  0.00000000 31.57500000 27.36500000
613   2  2.10500000 29.47000000 25.26000000
614   2  0.00000000 31.57500000 25.26000000
615   2  0.00000000 29.47000000 27.36500000
616   2  2.10500000 31.57500000 27.36500000
617   1  0.00000000 29.47000000 29.47000000
618   1  2.10500000 31.57500000 31.57500000
619   1  2.10500000 29.47000000 31.57500000
620   1  0.00000000 31.57500000 31.57500000
621   2  2.10500000 29.47000000 29.47000000
622   2  0.00000000 31.57500000 29.47000000
623   2  0.00000000 29.47000000 31.57500000
624   2  2.10500000 31.57500000 31.57500000
625   1  0.00000000 29.47000000 33.68000000
626   1  2.10500000 31.57500000 35.78500000
627   1  2.10500000 29.47000000 35.78500000
628   1  0.00000000 31.57500000 35.78500000
629   2  2.10500000 29.47000000 33.68000000
630   2  0.00000000 31.57500000 33.68000000
631   2  0.00000000 29.47000000 35.78500000
632   2  2.10500000 31.57500000 35.78500000
633   1  0.00000000 29.47000000 37.89000000
634   1  2.10500000 31.57500000 39.99500000
635   1  2.10500000 29.47000000 39.99500000
636   1  0.00000000 31.57500000 39.99500000
637   2  2.10500000 29.47000000 37.89000000
638   2  0.00000000 31.57500000 37.89000000
639   2  0.00000000 29.47000000 39.99500000
640   2  2.10500000 31.57500000 39.99500000
641   1  0.00000000 33.68000000 0.00000000
642   1  2.10500000 35.78500000 2.10500000
643   1  2.10500000 33.68000000 2.10500000
644   1  0.00000000 35.78500000 2.10500000
645   2  2.10500000 33.68000000 0.00000000
646   2  0.00000000 35.78500000 0.00000000
647   2  0.00000000 33.68000000 2.10500000
648   2  2.10500000 35.78500000 2.10500000
649   1  0.00000000 33.68000000 4.21000000
650   1  2.10500000 35.78500000 6.31500000
651   1  2.10500000 33.68000000 6.31500000
652   1  0.00000000 35.78500000 6.31500000
653   2  2.10500000 33.68000000 4.21000000
654   2  0.00000000 35.78500000 4.21000000
655   2  0.00000000 33.68000000 6.31500000
656   2  2.10500000 35.78500000 6.31500000
657   1  0.00000000 33.68000000 8.42000000
658   1  2.10500000 35.78500000 10.52500000
659   1  2.10500000 33.68000000 10.52500000
660   1  0.00000000 35.78500000 10.52500000
661   2  2.10500000 33.68000000 8.42000000
662   2  0.00000000 35.78500000 8.42000000
663   2  0.00000000 33.68000000 10.52500000
664   2  2.10500000 35.78500000 10.52500000
665   1  0.00000000 33.68000000 12.63000000
666   1  2.10500000 35.78500000 14.73500000
667   1  2.10500000 33.68000000 14.73500000
668   1  0.00000000 35.78500000 14.73500000
669   2  2.10500000 33.68000000 12.63000000
670   2  0.00000000 35.78500000 12.63000000
671   2  0.00000000 33.68000000 14.73500000
672   2  2.10500000 35.78500000 14.73500000
673   1  0.00000000 33.68000000 16.84000000
674   1  2.10500000 35.78500000 18.94500000
675   1  2.10500000 33.68000000 18.94500000
676   1  0.00000000 35.78500000 18.94500000
677   2  2.10500000 33.68000000 16.84000000
678   2  0.00000000 35.78500000 16.84000000
679   2  0.00000000 33.68000000 18.94500000
680   2  2.10500000 35.78500000 18.94500000
681   1  0.00000000 33.68000000 21.05000000
682   1  2.10500000 35.78500000 23.15500000
683   1  2.10500000 33.68000000 23.15500000
684   1  0.00000000 35.78500000 23.15500000
685   2  2.10500000 33.68000000 21.05000000
686   2  0.00000000 35.78500000 21.05000000
687   2  0.00000000 33.68000000 23.15500000
688   2  2.10500000 35.78500000 23.15500000
689   1  0.00000000 33.68000000 25.26000000