#  #

120  atoms
1  atom types

0.00000000 8.56590000  xlo xhi
0.00000000 11.42120000  ylo yhi
0.00000000 14.27650000  zlo zhi

Atoms

1   1  0.00000000 0.00000000 0.00000000
2   1  1.42765000 1.42765000 1.42765000
3   1  0.00000000 0.00000000 2.85530000
4   1  1.42765000 1.42765000 4.28295000
5   1  0.00000000 0.00000000 5.71060000
6   1  1.42765000 1.42765000 7.13825000
7   1  0.00000000 0.00000000 8.56590000
8   1  1.42765000 1.42765000 9.99355000
9   1  0.00000000 0.00000000 11.42120000
10   1  1.42765000 1.42765000 12.84885000
11   1  0.00000000 2.85530000 0.00000000
12   1  1.42765000 4.28295000 1.42765000
13   1  0.00000000 2.85530000 2.85530000
14   1  1.42765000 4.28295000 4.28295000
15   1  0.00000000 2.85530000 5.71060000
16   1  1.42765000 4.28295000 7.13825000
17   1  0.00000000 2.85530000 8.56590000
18   1  1.42765000 4.28295000 9.99355000
19   1  0.00000000 2.85530000 11.42120000
20   1  1.42765000 4.28295000 12.84885000
21   1  0.00000000 5.71060000 0.00000000
22   1  1.42765000 7.13825000 1.42765000
23   1  0.00000000 5.71060000 2.85530000
24   1  1.42765000 7.13825000 4.28295000
25   1  0.00000000 5.71060000 5.71060000
26   1  1.42765000 7.13825000 7.13825000
27   1  0.00000000 5.71060000 8.56590000
28   1  1.42765000 7.13825000 9.99355000
29   1  0.00000000 5.71060000 11.42120000
30   1  1.42765000 7.13825000 12.84885000
31   1  0.00000000 8.56590000 0.00000000
32   1  1.42765000 9.99355000 1.42765000
33   1  0.00000000 8.56590000 2.85530000
34   1  1.42765000 9.99355000 4.28295000
35   1  0.00000000 8.56590000 5.71060000
36   1  1.42765000 9.99355000 7.13825000
37   1  0.00000000 8.56590000 8.56590000
38   1  1.42765000 9.99355000 9.99355000
39   1  0.00000000 8.56590000 11.42120000
40   1  1.42765000 9.99355000 12.84885000
41   1  2.85530000 0.00000000 0.00000000
42   1  4.28295000 1.42765000 1.42765000
43   1  2.85530000 0.00000000 2.85530000
44   1  4.28295000 1.42765000 4.28295000
45   1  2.85530000 0.00000000 5.71060000
46   1  4.28295000 1.42765000 7.13825000
47   1  2.85530000 0.00000000 8.56590000
48   1  4.28295000 1.42765000 9.99355000
49   1  2.85530000 0.00000000 11.42120000
50   1  4.28295000 1.42765000 12.84885000
51   1  2.85530000 2.85530000 0.00000000
52   1  4.28295000 4.28295000 1.42765000
53   1  2.85530000 2.85530000 2.85530000
54   1  4.28295000 4.28295000 4.28295000
55   1  2.85530000 2.85530000 5.71060000
56   1  4.28295000 4.28295000 7.13825000
57   1  2.85530000 2.85530000 8.56590000
58   1  4.28295000 4.28295000 9.99355000
59   1  2.85530000 2.85530000 11.42120000
60   1  4.28295000 4.28295000 12.84885000
61   1  2.85530000 5.71060000 0.00000000
62   1  4.28295000 7.13825000 1.42765000
63   1  2.85530000 5.71060000 2.85530000
64   1  4.28295000 7.13825000 4.28295000
65   1  2.85530000 5.71060000 5.71060000
66   1  4.28295000 7.13825000 7.13825000
67   1  2.85530000 5.71060000 8.56590000
68   1  4.28295000 7.13825000 9.99355000
69   1  2.85530000 5.71060000 11.42120000
70   1  4.28295000 7.13825000 12.84885000
71   1  2.85530000 8.56590000 0.00000000
72   1  4.28295000 9.99355000 1.42765000
73   1  2.85530000 8.56590000 2.85530000
74   1  4.28295000 9.99355000 4.28295000
75   1  2.85530000 8.56590000 5.71060000
76   1  4.28295000 9.99355000 7.13825000
77   1  2.85530000 8.56590000 8.56590000
78   1  4.28295000 9.99355000 9.99355000
79   1  2.85530000 8.56590000 11.42120000
80   1  4.28295000 9.99355000 12.84885000
81   1  5.71060000 0.00000000 0.00000000
82   1  7.13825000 1.42765000 1.42765000
83   1  5.71060000 0.00000000 2.85530000
84   1  7.13825000 1.42765000 4.28295000
85   1  5.71060000 0.00000000 5.71060000
86   1  7.13825000 1.42765000 7.13825000
87   1  5.71060000 0.00000000 8.56590000
88   1  7.13825000 1.42765000 9.99355000
89   1  5.71060000 0.00000000 11.42120000
90   1  7.13825000 1.42765000 12.84885000
91   1  5.71060000 2.85530000 0.00000000
92   1  7.13825000 4.28295000 1.42765000
93   1  5.71060000 2.85530000 2.85530000
94   1  7.13825000 4.28295000 4.28295000
95   1  5.71060000 2.85530000 5.71060000
96   1  7.13825000 4.28295000 7.13825000
97   1  5.71060000 2.85530000 8.56590000
98   1  7.13825000 4.28295000 9.99355000
99   1  5.71060000 2.85530000 11.42120000
100   1  7.13825000 4.28295000 12.84885000
101   1  5.71060000 5.71060000 0.00000000
102   1  7.13825000 7.13825000 1.42765000
103   1  5.71060000 5.71060000 2.85530000
104   1  7.13825000 7.13825000 4.28295000
105   1  5.71060000 5.71060000 5.71060000
106   1  7.13825000 7.13825000 7.13825000
107   1  5.71060000 5.71060000 8.56590000
108   1  7.13825000 7.13825000 9.99355000
109   1  5.71060000 5.71060000 11.42120000
110   1  7.13825000 7.13825000 12.84885000
111   1  5.71060000 8.56590000 0.00000000
112   1  7.13825000 9.99355000 1.42765000
113   1  5.71060000 8.56590000 2.85530000
114   1  7.13825000 9.99355000 4.28295000
115   1  5.71060000 8.56590000 5.71060000
116   1  7.13825000 9.99355000 7.13825000
117   1  5.71060000 8.56590000 8.56590000
118   1  7.13825000 9.99355000 9.99355000
119   1  5.71060000 8.56590000 11.42120000
120   1  7.13825000 9.99355000 12.84885000
