LAMMPS data file via write_data, version 7 Aug 2019, timestep = 163

129 atoms
1 atom types

0.0000000000000000e+00 1.1421200000000001e+01 xlo xhi
0.0000000000000000e+00 1.1421200000000001e+01 ylo yhi
0.0000000000000000e+00 1.1421200000000001e+01 zlo zhi

Masses

1 56

Atoms # atomic

1 1 3.6152774224301115e-01 3.6152774224800421e-01 3.6152774223984907e-01 0 0 0
2 1 1.6177996877659786e+00 1.6177996877654359e+00 1.6177996877663638e+00 0 0 0
3 1 3.2947877163371830e-02 3.2947877163624406e-02 2.8775981130829851e+00 0 0 0
4 1 1.4464221394098054e+00 1.4464221394096455e+00 4.2966886967308779e+00 0 0 0
9 1 3.2947877163668392e-02 2.8775981130843289e+00 3.2947877163518553e-02 0 0 0
33 1 2.8775981130835491e+00 3.2947877163833524e-02 3.2947877163430964e-02 0 0 0
43 1 2.9267016958730996e+00 2.9267016958729002e+00 2.9267016958733723e+00 0 0 0
5 1 3.7791623365645887e-03 3.7791623365239411e-03 5.7074043328296380e+00 0 0 0
34 1 4.2966886967309312e+00 1.4464221394096206e+00 1.4464221394099899e+00 0 0 0
36 1 4.2962384553188810e+00 1.4212707668296374e+00 4.2962384553187629e+00 0 0 0
65 1 5.7074043328297943e+00 3.7791623363122306e-03 3.7791623364147675e-03 0 0 0
66 1 7.1402674408657933e+00 1.4269863831760092e+00 1.4269863831761005e+00 0 0 0
68 1 7.1396495216798428e+00 1.4262504783607617e+00 4.2829500000273901e+00 0 0 0
75 1 5.7195622796621635e+00 2.8573362058301304e+00 2.8573362058303942e+00 0 0 0
77 1 5.7085637940442142e+00 2.8463377203632554e+00 5.7085637940440686e+00 0 0 0
11 1 1.1409406805584833e+01 2.8777576507420020e+00 2.8777576507420592e+00 -1 0 0
98 1 9.9834266281816966e+00 1.4230453653105126e+00 1.4230453653107402e+00 0 0 0
99 1 8.5645173977568234e+00 4.3782025977996582e-03 2.8580588624297549e+00 0 0 0
100 1 9.9939874090623135e+00 1.4281097638631910e+00 4.2854397968354965e+00 0 0 0
105 1 8.5645173977569851e+00 2.8580588624298069e+00 4.3782025979581017e-03 0 0 0
107 1 8.5698670514899824e+00 2.8525812144003702e+00 2.8525812144005442e+00 0 0 0
101 1 8.5615217974525866e+00 1.3826023216092227e-03 5.7078411376737028e+00 0 0 0
109 1 8.5668761622478051e+00 2.8512663407401067e+00 5.7095311343199837e+00 0 0 0
10 1 1.4464221394097778e+00 4.2966886967309135e+00 1.4464221394099868e+00 0 0 0
12 1 1.4212707668300477e+00 4.2962384553187611e+00 4.2962384553186075e+00 0 0 0
17 1 3.7791623361950063e-03 5.7074043328297819e+00 3.7791623362570734e-03 0 0 0
18 1 1.4269863831761078e+00 7.1402674408656033e+00 1.4269863831761578e+00 0 0 0
20 1 1.4262504783609238e+00 7.1396495216800027e+00 4.2829500000272214e+00 0 0 0
51 1 2.8573362058302489e+00 5.7195622796622425e+00 2.8573362058303875e+00 0 0 0
53 1 2.8463377203633433e+00 5.7085637940443297e+00 5.7085637940440588e+00 0 0 0
42 1 4.2962384553183837e+00 4.2962384553184183e+00 1.4212707668305933e+00 0 0 0
44 1 4.2829499996729306e+00 4.2829499996729288e+00 4.2829499996728817e+00 0 0 0
50 1 4.2829500000271352e+00 7.1396495216800364e+00 1.4262504783611032e+00 0 0 0
52 1 4.2696615445865058e+00 7.1446292332322550e+00 4.2696615445864756e+00 0 0 0
74 1 7.1396495216798845e+00 4.2829500000272187e+00 1.4262504783610939e+00 0 0 0
76 1 7.1446292332318384e+00 4.2696615445866328e+00 4.2696615445866470e+00 0 0 0
82 1 7.1389136168091172e+00 7.1389136168091580e+00 1.4256325592958967e+00 0 0 0
83 1 5.7085637940442284e+00 5.7085637940443528e+00 2.8463377203633526e+00 0 0 0
84 1 7.1194778604681259e+00 7.1194778604682885e+00 4.2692113032949601e+00 0 0 0
85 1 5.6391983032069550e+00 5.6391983032071584e+00 5.6391983032067676e+00 0 0 0
19 1 1.1420223837821124e+01 5.7146336593188147e+00 2.8563688657450510e+00 -1 0 0
106 1 9.9939874090622904e+00 4.2854397968354769e+00 1.4281097638634725e+00 0 0 0
108 1 9.9935500000412532e+00 4.2829500000192198e+00 4.2829500000191523e+00 0 0 0
113 1 8.5615217974528246e+00 5.7078411376730642e+00 1.3826023215508627e-03 0 0 0
114 1 9.9935500000970716e+00 7.1376796399516653e+00 1.4282203601234602e+00 0 0 0
115 1 8.5668761622476186e+00 5.7095311343200210e+00 2.8512663407401773e+00 0 0 0
116 1 9.9931125910080727e+00 7.1377902361848431e+00 4.2804602032473174e+00 0 0 0
117 1 8.5776931945518182e+00 5.6881423493141909e+00 5.6881423493141634e+00 0 0 0
35 1 2.8777576507419034e+00 1.1409406805584412e+01 2.8777576507419416e+00 0 -1 0
26 1 1.4230453653084481e+00 9.9834266281830022e+00 1.4230453653085515e+00 0 0 0
27 1 4.3782025979081460e-03 8.5645173977568998e+00 2.8580588624294694e+00 0 0 0
28 1 1.4281097638630571e+00 9.9939874090624112e+00 4.2854397968352949e+00 0 0 0
57 1 2.8580588624295240e+00 8.5645173977569762e+00 4.3782025980146138e-03 0 0 0
59 1 2.8525812143998084e+00 8.5698670514906681e+00 2.8525812143998901e+00 0 0 0
29 1 1.3826023216889666e-03 8.5615217974526860e+00 5.7078411376734257e+00 0 0 0
61 1 2.8512663407400236e+00 8.5668761622479632e+00 5.7095311343199793e+00 0 0 0
67 1 5.7146336593189000e+00 1.1420223837820968e+01 2.8563688657450470e+00 0 -1 0
92 1 7.1377902361849683e+00 9.9931125910079768e+00 4.2804602032475119e+00 0 0 0
91 1 5.7095311343200459e+00 8.5668761622478886e+00 2.8512663407399956e+00 0 0 0
58 1 4.2854397968352993e+00 9.9939874090624325e+00 1.4281097638631968e+00 0 0 0
60 1 4.2829500000192180e+00 9.9935500000412496e+00 4.2829500000191469e+00 0 0 0
89 1 5.7078411376730687e+00 8.5615217974528814e+00 1.3826023216358839e-03 0 0 0
90 1 7.1376796399520384e+00 9.9935500000973700e+00 1.4282203601231065e+00 0 0 0
93 1 5.6881423493142833e+00 8.5776931945522250e+00 5.6881423493142753e+00 0 0 0
124 1 9.9935500000471862e+00 9.9935500000471826e+00 4.2829500000325984e+00 0 0 0
123 1 8.5621208377225031e+00 8.5621208377225457e+00 2.8584956672603909e+00 0 0 0
122 1 1.0017105113835365e+01 1.0017105113835248e+01 1.4854798818419277e+00 0 0 0
121 1 8.5841626087119227e+00 8.5841626087117309e+00 2.9954573986942741e-02 0 0 0
125 1 8.5329521228339296e+00 8.5329521228336898e+00 5.6883018867212378e+00 0 0 0
6 1 1.4269863831761245e+00 1.4269863831760836e+00 7.1402674408657818e+00 0 0 0
8 1 1.4230453653121260e+00 1.4230453653120017e+00 9.9834266281809185e+00 0 0 0
15 1 4.3782025979345442e-03 2.8580588624300356e+00 8.5645173977568749e+00 0 0 0
39 1 2.8580588624300383e+00 4.3782025978817011e-03 8.5645173977567879e+00 0 0 0
45 1 2.8573362058302973e+00 2.8573362058301726e+00 5.7195622796619840e+00 0 0 0
47 1 2.8525812144008880e+00 2.8525812144007960e+00 8.5698670514894957e+00 0 0 0
41 1 2.8777576507420988e+00 2.8777576507420792e+00 1.1409406805585160e+01 0 0 -1
38 1 4.2829500000274940e+00 1.4262504783607759e+00 7.1396495216796758e+00 0 0 0
40 1 4.2854397968356528e+00 1.4281097638633802e+00 9.9939874090622443e+00 0 0 0
70 1 7.1389136168088791e+00 1.4256325592964858e+00 7.1389136168088347e+00 0 0 0
71 1 5.7078411376737552e+00 1.3826023214888407e-03 8.5615217974525688e+00 0 0 0
72 1 7.1376796399511608e+00 1.4282203601240562e+00 9.9935500000981019e+00 0 0 0
79 1 5.7095311343199553e+00 2.8512663407401888e+00 8.5668761622475671e+00 0 0 0
73 1 5.7146336593184106e+00 2.8563688657450976e+00 1.1420223837821604e+01 0 0 -1
13 1 1.1420223837821412e+01 2.8563688657451922e+00 5.7146336593184923e+00 -1 0 0
102 1 9.9935500000983257e+00 1.4282203601238017e+00 7.1376796399513971e+00 0 0 0
103 1 8.5841626087125125e+00 2.9954573994029392e-02 8.5841626087126084e+00 0 0 0
104 1 1.0017105113836568e+01 1.4854798818414763e+00 1.0017105113836553e+01 0 0 0
111 1 8.5621208377228122e+00 2.8584956672605526e+00 8.5621208377227802e+00 0 0 0
14 1 1.4262504783609287e+00 4.2829500000274097e+00 7.1396495216796838e+00 0 0 0
16 1 1.4281097638635221e+00 4.2854397968356297e+00 9.9939874090622016e+00 0 0 0
22 1 1.4256325592963170e+00 7.1389136168089653e+00 7.1389136168088800e+00 0 0 0
23 1 1.3826023214835311e-03 5.7078411376734763e+00 8.5615217974526132e+00 0 0 0
24 1 1.4282203601240546e+00 7.1376796399511289e+00 9.9935500000975157e+00 0 0 0
55 1 2.8512663407402874e+00 5.7095311343199269e+00 8.5668761622474552e+00 0 0 0
49 1 2.8563688657450781e+00 5.7146336593184968e+00 1.1420223837821496e+01 0 0 -1
46 1 4.2696615445867048e+00 4.2696615445866613e+00 7.1446292332314414e+00 0 0 0
48 1 4.2829500000191230e+00 4.2829500000191185e+00 9.9935500000412087e+00 0 0 0
54 1 4.2692113032950454e+00 7.1194778604682725e+00 7.1194778604679518e+00 0 0 0
56 1 4.2804602032470722e+00 7.1377902361844168e+00 9.9931125910083143e+00 0 0 0
78 1 7.1194778604681153e+00 4.2692113032950552e+00 7.1194778604679563e+00 0 0 0
80 1 7.1377902361842773e+00 4.2804602032470909e+00 9.9931125910083516e+00 0 0 0
86 1 6.9481003107261454e+00 6.9481003107266668e+00 6.9481003107253212e+00 0 0 0
87 1 5.6881423493139858e+00 5.6881423493140062e+00 8.5776931945512036e+00 0 0 0
88 1 7.1428546351044311e+00 7.1428546351045519e+00 1.0003673371889501e+01 0 0 0
81 1 5.7133187856912597e+00 5.7133187856913494e+00 1.1417232948524925e+01 0 0 -1
21 1 1.1417232948523882e+01 5.7133187856923771e+00 5.7133187856921630e+00 -1 0 0
110 1 9.9931125910082219e+00 4.2804602032473911e+00 7.1377902361845242e+00 0 0 0
112 1 9.9935500000473443e+00 4.2829500000325336e+00 9.9935500000472803e+00 0 0 0
118 1 1.0003673371887389e+01 7.1428546351079376e+00 7.1428546351076427e+00 0 0 0
119 1 8.5329521228338319e+00 5.6883018867193069e+00 8.5329521228342422e+00 0 0 0
120 1 9.9699948863365151e+00 7.0804201181503839e+00 9.9699948863362469e+00 0 0 0
37 1 2.8563688657451687e+00 1.1420223837821149e+01 5.7146336593186620e+00 0 -1 0
30 1 1.4282203601234462e+00 9.9935500000980380e+00 7.1376796399517373e+00 0 0 0
31 1 2.9954573991411604e-02 8.5841626087120293e+00 8.5841626087123153e+00 0 0 0
32 1 1.4854798818419217e+00 1.0017105113835964e+01 1.0017105113836065e+01 0 0 0
63 1 2.8584956672605566e+00 8.5621208377226949e+00 8.5621208377226203e+00 0 0 0
69 1 5.7133187856929126e+00 1.1417232948523221e+01 5.7133187856927874e+00 0 -1 0
96 1 7.0804201181499842e+00 9.9699948863371226e+00 9.9699948863367496e+00 0 0 0
95 1 5.6883018867200583e+00 8.5329521228336880e+00 8.5329521228343381e+00 0 0 0
94 1 7.1428546351099156e+00 1.0003673371886148e+01 7.1428546351097415e+00 0 0 0
64 1 4.2829500000325309e+00 9.9935500000473496e+00 9.9935500000472892e+00 0 0 0
62 1 4.2804602032475652e+00 9.9931125910080887e+00 7.1377902361847880e+00 0 0 0
129 1 1.0599345755892465e+01 1.0599345755888816e+01 1.0599345755895056e+01 0 0 0
7 1 1.1402937391409186e+01 1.1402937391409365e+01 8.5359454267160704e+00 -1 -1 0
128 1 9.3877542418930737e+00 9.3877542418965820e+00 9.3877542418875262e+00 0 0 0
127 1 8.2043722555794201e+00 8.2043722555746541e+00 8.2043722555873533e+00 0 0 0
126 1 9.9699948863374281e+00 9.9699948863375329e+00 7.0804201181490294e+00 0 0 0
97 1 8.5359454267144290e+00 1.1402937391409001e+01 1.1402937391408495e+01 0 -1 -1
25 1 1.1402937391408532e+01 8.5359454267116774e+00 1.1402937391408205e+01 -1 0 -1

Velocities

1 0.0000000000000000e+00 0.0000000000000000e+00 0.0000000000000000e+00
2 0.0000000000000000e+00 0.0000000000000000e+00 0.0000000000000000e+00
3 0.0000000000000000e+00 0.0000000000000000e+00 0.0000000000000000e+00
4 0.0000000000000000e+00 0.0000000000000000e+00 0.0000000000000000e+00
9 0.0000000000000000e+00 0.0000000000000000e+00 0.0000000000000000e+00
33 0.0000000000000000e+00 0.0000000000000000e+00 0.0000000000000000e+00
43 0.0000000000000000e+00 0.0000000000000000e+00 0.0000000000000000e+00
5 0.0000000000000000e+00 0.0000000000000000e+00 0.0000000000000000e+00
34 0.0000000000000000e+00 0.0000000000000000e+00 0.0000000000000000e+00
36 0.0000000000000000e+00 0.0000000000000000e+00 0.0000000000000000e+00
65 0.0000000000000000e+00 0.0000000000000000e+00 0.0000000000000000e+00
66 0.0000000000000000e+00 0.0000000000000000e+00 0.0000000000000000e+00
68 0.0000000000000000e+00 0.0000000000000000e+00 0.0000000000000000e+00
75 0.0000000000000000e+00 0.0000000000000000e+00 0.0000000000000000e+00
77 0.0000000000000000e+00 0.0000000000000000e+00 0.0000000000000000e+00
11 0.0000000000000000e+00 0.0000000000000000e+00 0.0000000000000000e+00
98 0.0000000000000000e+00 0.0000000000000000e+00 0.0000000000000000e+00
99 0.0000000000000000e+00 0.0000000000000000e+00 0.0000000000000000e+00
100 0.0000000000000000e+00 0.0000000000000000e+00 0.0000000000000000e+00
105 0.0000000000000000e+00 0.0000000000000000e+00 0.0000000000000000e+00
107 0.0000000000000000e+00 0.0000000000000000e+00 0.0000000000000000e+00
101 0.0000000000000000e+00 0.0000000000000000e+00 0.0000000000000000e+00
109 0.0000000000000000e+00 0.0000000000000000e+00 0.0000000000000000e+00
10 0.0000000000000000e+00 0.0000000000000000e+00 0.0000000000000000e+00
12 0.0000000000000000e+00 0.0000000000000000e+00 0.0000000000000000e+00
17 0.0000000000000000e+00 0.0000000000000000e+00 0.0000000000000000e+00
18 0.0000000000000000e+00 0.0000000000000000e+00 0.0000000000000000e+00
20 0.0000000000000000e+00 0.0000000000000000e+00 0.0000000000000000e+00
51 0.0000000000000000e+00 0.0000000000000000e+00 0.0000000000000000e+00
53 0.0000000000000000e+00 0.0000000000000000e+00 0.0000000000000000e+00
42 0.0000000000000000e+00 0.0000000000000000e+00 0.0000000000000000e+00
44 0.0000000000000000e+00 0.0000000000000000e+00 0.0000000000000000e+00
50 0.0000000000000000e+00 0.0000000000000000e+00 0.0000000000000000e+00
52 0.0000000000000000e+00 0.0000000000000000e+00 0.0000000000000000e+00
74 0.0000000000000000e+00 0.0000000000000000e+00 0.0000000000000000e+00
76 0.0000000000000000e+00 0.0000000000000000e+00 0.0000000000000000e+00
82 0.0000000000000000e+00 0.0000000000000000e+00 0.0000000000000000e+00
83 0.0000000000000000e+00 0.0000000000000000e+00 0.0000000000000000e+00
84 0.0000000000000000e+00 0.0000000000000000e+00 0.0000000000000000e+00
85 0.0000000000000000e+00 0.0000000000000000e+00 0.0000000000000000e+00
19 0.0000000000000000e+00 0.0000000000000000e+00 0.0000000000000000e+00
106 0.0000000000000000e+00 0.0000000000000000e+00 0.0000000000000000e+00
108 0.0000000000000000e+00 0.0000000000000000e+00 0.0000000000000000e+00
113 0.0000000000000000e+00 0.0000000000000000e+00 0.0000000000000000e+00
114 0.0000000000000000e+00 0.0000000000000000e+00 0.0000000000000000e+00
115 0.0000000000000000e+00 0.0000000000000000e+00 0.0000000000000000e+00
116 0.0000000000000000e+00 0.0000000000000000e+00 0.0000000000000000e+00
117 0.0000000000000000e+00 0.0000000000000000e+00 0.0000000000000000e+00
35 0.0000000000000000e+00 0.0000000000000000e+00 0.0000000000000000e+00
26 0.0000000000000000e+00 0.0000000000000000e+00 0.0000000000000000e+00
27 0.0000000000000000e+00 0.0000000000000000e+00 0.0000000000000000e+00
28 0.0000000000000000e+00 0.0000000000000000e+00 0.0000000000000000e+00
57 0.0000000000000000e+00 0.0000000000000000e+00 0.0000000000000000e+00
59 0.0000000000000000e+00 0.0000000000000000e+00 0.0000000000000000e+00
29 0.0000000000000000e+00 0.0000000000000000e+00 0.0000000000000000e+00
61 0.0000000000000000e+00 0.0000000000000000e+00 0.0000000000000000e+00
67 0.0000000000000000e+00 0.0000000000000000e+00 0.0000000000000000e+00
92 0.0000000000000000e+00 0.0000000000000000e+00 0.0000000000000000e+00
91 0.0000000000000000e+00 0.0000000000000000e+00 0.0000000000000000e+00
58 0.0000000000000000e+00 0.0000000000000000e+00 0.0000000000000000e+00
60 0.0000000000000000e+00 0.0000000000000000e+00 0.0000000000000000e+00
89 0.0000000000000000e+00 0.0000000000000000e+00 0.0000000000000000e+00
90 0.0000000000000000e+00 0.0000000000000000e+00 0.0000000000000000e+00
93 0.0000000000000000e+00 0.0000000000000000e+00 0.0000000000000000e+00
124 0.0000000000000000e+00 0.0000000000000000e+00 0.0000000000000000e+00
123 0.0000000000000000e+00 0.0000000000000000e+00 0.0000000000000000e+00
122 0.0000000000000000e+00 0.0000000000000000e+00 0.0000000000000000e+00
121 0.0000000000000000e+00 0.0000000000000000e+00 0.0000000000000000e+00
125 0.0000000000000000e+00 0.0000000000000000e+00 0.0000000000000000e+00
6 0.0000000000000000e+00 0.0000000000000000e+00 0.0000000000000000e+00
8 0.0000000000000000e+00 0.0000000000000000e+00 0.0000000000000000e+00
15 0.0000000000000000e+00 0.0000000000000000e+00 0.0000000000000000e+00
39 0.0000000000000000e+00 0.0000000000000000e+00 0.0000000000000000e+00
45 0.0000000000000000e+00 0.0000000000000000e+00 0.0000000000000000e+00
47 0.0000000000000000e+00 0.0000000000000000e+00 0.0000000000000000e+00
41 0.0000000000000000e+00 0.0000000000000000e+00 0.0000000000000000e+00
38 0.0000000000000000e+00 0.0000000000000000e+00 0.0000000000000000e+00
40 0.0000000000000000e+00 0.0000000000000000e+00 0.0000000000000000e+00
70 0.0000000000000000e+00 0.0000000000000000e+00 0.0000000000000000e+00
71 0.0000000000000000e+00 0.0000000000000000e+00 0.0000000000000000e+00
72 0.0000000000000000e+00 0.0000000000000000e+00 0.0000000000000000e+00
79 0.0000000000000000e+00 0.0000000000000000e+00 0.0000000000000000e+00
73 0.0000000000000000e+00 0.0000000000000000e+00 0.0000000000000000e+00
13 0.0000000000000000e+00 0.0000000000000000e+00 0.0000000000000000e+00
102 0.0000000000000000e+00 0.0000000000000000e+00 0.0000000000000000e+00
103 0.0000000000000000e+00 0.0000000000000000e+00 0.0000000000000000e+00
104 0.0000000000000000e+00 0.0000000000000000e+00 0.0000000000000000e+00
111 0.0000000000000000e+00 0.0000000000000000e+00 0.0000000000000000e+00
14 0.0000000000000000e+00 0.0000000000000000e+00 0.0000000000000000e+00
16 0.0000000000000000e+00 0.0000000000000000e+00 0.0000000000000000e+00
22 0.0000000000000000e+00 0.0000000000000000e+00 0.0000000000000000e+00
23 0.0000000000000000e+00 0.0000000000000000e+00 0.0000000000000000e+00
24 0.0000000000000000e+00 0.0000000000000000e+00 0.0000000000000000e+00
55 0.0000000000000000e+00 0.0000000000000000e+00 0.0000000000000000e+00
49 0.0000000000000000e+00 0.0000000000000000e+00 0.0000000000000000e+00
46 0.0000000000000000e+00 0.0000000000000000e+00 0.0000000000000000e+00
48 0.0000000000000000e+00 0.0000000000000000e+00 0.0000000000000000e+00
54 0.0000000000000000e+00 0.0000000000000000e+00 0.0000000000000000e+00
56 0.0000000000000000e+00 0.0000000000000000e+00 0.0000000000000000e+00
78 0.0000000000000000e+00 0.0000000000000000e+00 0.0000000000000000e+00
80 0.0000000000000000e+00 0.0000000000000000e+00 0.0000000000000000e+00
86 0.0000000000000000e+00 0.0000000000000000e+00 0.0000000000000000e+00
87 0.0000000000000000e+00 0.0000000000000000e+00 0.0000000000000000e+00
88 0.0000000000000000e+00 0.0000000000000000e+00 0.0000000000000000e+00
81 0.0000000000000000e+00 0.0000000000000000e+00 0.0000000000000000e+00
21 0.0000000000000000e+00 0.0000000000000000e+00 0.0000000000000000e+00
110 0.0000000000000000e+00 0.0000000000000000e+00 0.0000000000000000e+00
112 0.0000000000000000e+00 0.0000000000000000e+00 0.0000000000000000e+00
118 0.0000000000000000e+00 0.0000000000000000e+00 0.0000000000000000e+00
119 0.0000000000000000e+00 0.0000000000000000e+00 0.0000000000000000e+00
120 0.0000000000000000e+00 0.0000000000000000e+00 0.0000000000000000e+00
37 0.0000000000000000e+00 0.0000000000000000e+00 0.0000000000000000e+00
30 0.0000000000000000e+00 0.0000000000000000e+00 0.0000000000000000e+00
31 0.0000000000000000e+00 0.0000000000000000e+00 0.0000000000000000e+00
32 0.0000000000000000e+00 0.0000000000000000e+00 0.0000000000000000e+00
63 0.0000000000000000e+00 0.0000000000000000e+00 0.0000000000000000e+00
69 0.0000000000000000e+00 0.0000000000000000e+00 0.0000000000000000e+00
96 0.0000000000000000e+00 0.0000000000000000e+00 0.0000000000000000e+00
95 0.0000000000000000e+00 0.0000000000000000e+00 0.0000000000000000e+00
94 0.0000000000000000e+00 0.0000000000000000e+00 0.0000000000000000e+00
64 0.0000000000000000e+00 0.0000000000000000e+00 0.0000000000000000e+00
62 0.0000000000000000e+00 0.0000000000000000e+00 0.0000000000000000e+00
129 0.0000000000000000e+00 0.0000000000000000e+00 0.0000000000000000e+00
7 0.0000000000000000e+00 0.0000000000000000e+00 0.0000000000000000e+00
128 0.0000000000000000e+00 0.0000000000000000e+00 0.0000000000000000e+00
127 0.0000000000000000e+00 0.0000000000000000e+00 0.0000000000000000e+00
126 0.0000000000000000e+00 0.0000000000000000e+00 0.0000000000000000e+00
97 0.0000000000000000e+00 0.0000000000000000e+00 0.0000000000000000e+00
25 0.0000000000000000e+00 0.0000000000000000e+00 0.0000000000000000e+00
