LAMMPS (7 Aug 2019)
OMP_NUM_THREADS environment is not set. Defaulting to 1 thread. (../comm.cpp:93)
  using 1 OpenMP thread(s) per MPI task
Reading data file ...
  orthogonal box = (0 0 0) to (11.4212 11.4212 11.4212)
  1 by 2 by 2 MPI processor grid
  reading atoms ...
  129 atoms
  reading velocities ...
  129 velocities
  read_data CPU = 0.00075388 secs
129 atoms in group iron
129 atoms in group Fe
Neighbor list info ...
  update every 1 steps, delay 10 steps, check yes
  max neighbors/atom: 2000, page size: 100000
  master list distance cutoff = 7.3
  ghost atom cutoff = 7.3
  binsize = 3.65, bins = 4 4 4
  1 neighbor lists, perpetual/occasional/extra = 1 0 0
  (1) pair eam/fs, perpetual
      attributes: half, newton on
      pair build: half/bin/atomonly/newton
      stencil: half/bin/3d/newton
      bin: standard
Setting up Verlet run ...
  Unit style    : metal
  Current step  : 0
  Time step     : 0.002
Per MPI rank memory allocation (min/avg/max) = 2.982 | 3.075 | 3.356 Mbytes
Step Temp PotEng TotEng Press Volume Lx 
       0          600   -513.59825   -503.67107    20744.569    1489.8248      11.4212 
    2000    548.26367   -502.99007   -493.91889    7813.7613    1520.0312    11.497873 
    4000    614.40348   -504.65934   -494.49385    4154.7897    1522.1937    11.503323 
    6000    571.28029   -502.87946   -493.42746   -6535.5315    1533.3499    11.531357 
    8000    555.94887      -501.93   -492.73166   -1592.9151    1532.5458    11.529341 
   10000    618.44569   -503.87281   -493.64045   -5312.5742    1532.1078    11.528243 
   12000     573.6175   -503.29742   -493.80675    8432.3801    1519.4093    11.496305 
   14000    619.57766    -502.2627    -492.0116    2535.9558    1527.4143    11.516459 
   16000    585.38757   -504.72231    -495.0369   -18341.849    1542.6042    11.554509 
   18000     545.0832   -503.70716    -494.6886   -7588.2491    1534.9781    11.535437 
   20000    603.26754   -502.91061   -492.92937   -286.74874    1528.2507     11.51856 
   22000    585.08428   -502.76331   -493.08291   -5266.1367    1533.9193    11.532784 
   24000    577.18767   -504.25852   -494.70877   -9958.5455    1538.7225     11.54481 
   26000     633.4376   -503.72402   -493.24361    -10565.32    1537.2351    11.541088 
   28000    681.98223   -503.44549   -492.16189    1653.3256    1527.1892    11.515893 
   30000    552.73834   -502.83908   -493.69386    1415.2872    1525.3884    11.511365 
   32000    567.00513   -504.96963   -495.58836    6074.4924    1516.9476    11.490093 
   34000    573.19196    -504.4078   -494.92417    10121.694    1514.4527     11.48379 
   36000    644.81156   -502.54563   -491.87703   -174.91094    1528.0953     11.51817 
   38000    625.72063   -503.68156   -493.32883   -9435.2164    1535.9125    11.537778 
   40000    506.50715   -503.00829   -494.62798   -4601.4981    1531.9737    11.527906 
   42000     588.5871   -503.17379   -493.43544    1982.2358    1526.8652    11.515078 
   44000    545.75956   -503.14068   -494.11092   -3831.2662    1530.1085    11.523226 
   46000    649.87316   -503.71807   -492.96573    4440.3116    1522.0655       11.503 
   48000    607.12875   -503.28338   -493.23826   -5351.5724    1533.5998    11.531984 
   50000    563.56334   -504.13191   -494.80759   -8908.0076     1534.111    11.533265 
Loop time of 7.29714 on 4 procs for 50000 steps with 129 atoms

Performance: 1184.025 ns/day, 0.020 hours/ns, 6851.995 timesteps/s
98.2% CPU use with 4 MPI tasks x 1 OpenMP threads

MPI task timing breakdown:
Section |  min time  |  avg time  |  max time  |%varavg| %total
---------------------------------------------------------------
Pair    | 4.4027     | 4.7564     | 5.0789     |  11.3 | 65.18
Neigh   | 0.0020673  | 0.0021593  | 0.0022874  |   0.2 |  0.03
Comm    | 1.5566     | 1.8625     | 2.1996     |  17.0 | 25.52
Output  | 0.00034618 | 0.00037807 | 0.00044823 |   0.0 |  0.01
Modify  | 0.51836    | 0.53333    | 0.54839    |   2.0 |  7.31
Other   |            | 0.1424     |            |       |  1.95

Nlocal:    32.25 ave 35 max 30 min
Histogram: 1 0 1 0 0 0 1 0 0 1
Nghost:    1000.5 ave 1011 max 989 min
Histogram: 1 0 0 1 0 0 0 1 0 1
Neighs:    2262.25 ave 2421 max 1941 min
Histogram: 1 0 0 0 0 0 0 1 0 2

Total # of neighbors = 9049
Ave neighs/atom = 70.1473
Neighbor list builds = 29
Dangerous builds = 0
----STARTING----
Setting up Verlet run ...
  Unit style    : metal
  Current step  : 0
  Time step     : 0.002
Per MPI rank memory allocation (min/avg/max) = 4.982 | 4.982 | 4.982 Mbytes
Step v_my_time Temp Press Volume f_ave_vol f_ave_temp f_ave_press f_ave_latcon c_msdFe_1[1] c_msdFe_1[2] c_msdFe_1[3] c_msdFe_1[4] 
       0            0    563.56334   -8908.0076     1534.111            0            0            0            0  9.71027e-33 7.9127354e-33 4.036988e-33 2.1659994e-32 
    2000            4    665.65922    5574.7653    1525.5116    1527.9277    607.38043   -219.07032    2.8794236  0.043843323  0.048569127  0.049171863   0.14158431 
    4000            8    651.79513   -696.89698    1528.1081    1528.4316    614.20014    -151.9285    2.8797418   0.12861226  0.088498903  0.086496442   0.30360761 
    6000           12    531.17975   -5916.7739    1533.7239    1528.4652    613.55227   -42.303134    2.8797602   0.12825989  0.084539029  0.088685831   0.30148475 
    8000           16    583.08473    10422.409    1517.1022    1528.4227    611.89964   -66.596754    2.8797352   0.14118955  0.093672928   0.10299199   0.33785446 
   10000           20    542.65563    7307.5465    1519.8874    1528.2281    610.76111   -25.020573    2.8796133   0.20753969   0.10498058   0.12058412   0.43310439 
   12000           24    555.98111   -3780.7522    1527.6973     1527.876    605.77176   -34.136923    2.8793923   0.26686355   0.13991945   0.13576147   0.54254446 
   14000           28    567.91702   -7906.7459    1534.1353    1527.7033    601.74566    -35.82087    2.8792835   0.32518951   0.13762381   0.12548243   0.58829575 
   16000           32    617.24506   -5193.6655    1534.6985    1527.6456     601.4253    -36.41551    2.8792481   0.26638056    0.1706016   0.12675096   0.56373312 
   18000           36    652.67313    574.53415    1527.5056    1527.5955    600.78329   -14.397685    2.8792166   0.27049287   0.14568792   0.14345579   0.55963659 
   20000           40    618.97114   -2141.3701    1529.6903    1527.5161    600.49996   -21.163137    2.8791678   0.26795408   0.17462919   0.24826045   0.69084373 
   22000           44    502.40505   -8332.5193    1533.3927    1527.4104    598.39194   -7.2377528    2.8791011   0.27195039   0.23811706   0.25008621   0.76015366 
   24000           48    598.96414   -1607.0421    1526.5298     1527.372    597.48114    -23.91346    2.8790777   0.27199714   0.18673273   0.23954598   0.69827585 
   26000           52    575.24811    5347.6052    1524.8338    1527.3804    598.04868   -14.922817    2.8790829   0.28049238   0.17942683   0.23556956   0.69548877 
   28000           56    616.18157    13620.124    1516.4341     1527.465    599.64202   -16.107581     2.879136   0.34068792   0.19728261   0.25432829   0.79229882 
   30000           60    591.82443    9538.5452    1519.1678    1527.4491    599.34854   -23.399702    2.8791261   0.31466901   0.26488325   0.27158183   0.85113409 
   32000           64    635.50716    21176.864    1507.3583    1527.4655    599.18665   -34.359018    2.8791361   0.30203631   0.25158899   0.25552792   0.80915322 
   34000           68    480.70573    5597.9486    1517.5749    1527.4281    598.44961   -17.102288    2.8791121   0.31608713   0.21337615   0.25061865   0.78008192 
   36000           72    576.29143      3197.48    1522.9049    1527.3957    597.41513   -19.705332    2.8790916   0.34488448    0.2145048   0.26707757   0.82646685 
   38000           76    528.14037    3336.7104    1523.1137    1527.3646     596.5002   -12.482338     2.879072   0.34395017    0.1979623   0.29409734   0.83600981 
   40000           80    563.81445   -755.96198    1528.7222    1527.3603     596.1368   -16.039398    2.8790687   0.34340883   0.21168102   0.36809651   0.92318637 
   42000           84    589.41793   -14935.439    1547.1931    1527.3526    596.11497   -8.3808065     2.879064   0.33778072   0.19834762   0.36867991   0.90480825 
   44000           88    615.61859   -5814.0994    1530.4752    1527.3605    596.08721   -4.7243945    2.8790686   0.33007792    0.2013661   0.37343897   0.90488299 
   46000           92    578.04579    4801.3643    1520.2055    1527.3173    595.37987   -12.111356    2.8790418   0.33847385   0.20564797   0.37664917   0.92077099 
   48000           96     569.6697   -4446.2901    1529.0813    1527.2728    594.76502   -6.6656057    2.8790136   0.33703953    0.2051087   0.38034018   0.92248841 
   50000          100    616.03648   -7210.1901    1538.3798    1527.2283    594.37646   -1.0849337    2.8789854   0.35523651   0.26695284   0.36150262   0.98369197 
   52000          104    664.12988   -9526.9794    1536.3874    1527.2315    594.42751   -1.1274527    2.8789874   0.36311608   0.26264262   0.35382241   0.97958111 
   54000          108    606.42626   -5017.5307    1533.7431     1527.204    593.39837    -3.045256    2.8789703   0.34313484   0.25618212   0.36239576   0.96171271 
   56000          112    607.92216    12015.137    1512.7152    1527.1851    593.42229    -2.709814     2.878958   0.37335624   0.31275462   0.36617613     1.052287 
   58000          116    522.50416   -4773.3608    1528.9411    1527.1646    593.32522   -4.9662657    2.8789453   0.39227609   0.35466212   0.39940237    1.1463406 
   60000          120    554.42047   -6192.5848    1530.9329    1527.1328    592.85806   -4.7523572    2.8789248   0.42864386   0.42231756   0.50384762     1.354809 
   62000          124     570.6808   -17450.325    1544.0671    1527.1038    592.43989    -2.785572    2.8789065   0.44291241   0.39228786   0.49650684    1.3317071 
   64000          128    577.54515   -6975.0418    1530.4243    1527.0931    592.45928    3.5441327    2.8788996   0.45107406   0.42189711   0.51395892    1.3869301 
   66000          132    628.29942   -279.64121    1530.8621     1527.118    593.19598     2.790361    2.8789151   0.43652549   0.43716567   0.54623205    1.4199232 
   68000          136     574.4755    10948.836    1518.6875    1527.1583    593.81347     3.503793    2.8789405   0.45419546   0.45247443   0.54591624    1.4525861 
   70000          140    573.58267    13174.646    1512.6576    1527.1736     594.0027   -0.2049756    2.8789501   0.46854773    0.4431025   0.54929627    1.4609465 
   72000          144    683.40512    10178.655    1520.9432    1527.1951    594.39904    3.3780706    2.8789638   0.43689505   0.45375228   0.54377473    1.4344221 
   74000          148    610.38101    8596.2254    1519.5002    1527.2241     594.6939  -0.08914141     2.878982   0.47514699   0.45702077   0.56668196    1.4988497 
   76000          152    581.95848    10415.507    1515.1639    1527.2481    594.95122    3.0561585    2.8789971   0.49625403   0.47947944   0.55820336    1.5339368 
   78000          156    573.80125    4993.6648     1521.103    1527.2452     594.9412  -0.69519703    2.8789955   0.50535814   0.48900013    0.5566803    1.5510386 
   80000          160    642.23023   -6438.6471    1536.8917    1527.2577    595.26475     1.129636    2.8790033   0.53070477   0.53347279    0.5925533    1.6567309 
   82000          164    600.60029    697.45841    1525.1159    1527.2637    595.45788    4.2426887    2.8790071   0.51107402   0.54149134   0.58513756    1.6377029 
   84000          168    585.58309    5833.1486    1519.3097     1527.282    595.59102 -0.013445412    2.8790185   0.50510733   0.51696983   0.57256117    1.5946383 
   86000          172    514.38786   -3912.0406     1530.268    1527.2994    595.92977  -0.33882875    2.8790295   0.50629818   0.52203253   0.55879192    1.5871226 
   88000          176    518.12578   -13275.913    1543.4936    1527.3089    595.86153  -0.19792049    2.8790353    0.5107038   0.55041872   0.57522923    1.6363517 
   90000          180    610.70408   -7251.4658    1537.7504    1527.2856    595.61635    1.1203178    2.8790206   0.52379684   0.54652147   0.60482904    1.6751474 
   92000          184     598.0565   -6934.9545    1530.5748    1527.2768    595.55416   -1.7878356    2.8790153   0.55148848   0.55425852   0.61842465    1.7241716 
   94000          188    500.49993    3632.4118    1524.7022    1527.2617     595.1749    1.9016614    2.8790058   0.56771854   0.56099251   0.59571653    1.7244276 
   96000          192    607.17245    2871.9231    1525.6601     1527.274    595.32634  -0.49344024    2.8790138   0.57408252    0.5577611   0.59454245    1.7263861 
   98000          196    540.19166    7263.7977    1521.5516    1527.2936    595.73176   -1.5844456    2.8790262   0.54169719   0.52471714   0.56959909    1.6360134 
----FINISHED: 1/40 ---- T=600 -----
  100000          200    554.12022    14290.378    1514.5249     1527.301    595.92608    0.6738924     2.879031   0.58543451   0.56859434   0.59959159    1.7536204 
Loop time of 15.1906 on 4 procs for 100000 steps with 129 atoms

Performance: 1137.544 ns/day, 0.021 hours/ns, 6583.010 timesteps/s
98.8% CPU use with 4 MPI tasks x 1 OpenMP threads

MPI task timing breakdown:
Section |  min time  |  avg time  |  max time  |%varavg| %total
---------------------------------------------------------------
Pair    | 8.6388     | 9.3377     | 9.8803     |  14.8 | 61.47
Neigh   | 0.0069504  | 0.0072731  | 0.0076044  |   0.3 |  0.05
Comm    | 3.079      | 3.6113     | 4.2989     |  23.3 | 23.77
Output  | 0.095752   | 0.10644    | 0.12624    |   3.6 |  0.70
Modify  | 1.8298     | 1.8415     | 1.8603     |   0.9 | 12.12
Other   |            | 0.2864     |            |       |  1.89

Nlocal:    32.25 ave 34 max 30 min
Histogram: 1 0 1 0 0 0 0 0 0 2
Nghost:    948 ave 975 max 926 min
Histogram: 1 0 0 1 1 0 0 0 0 1
Neighs:    2272.25 ave 2568 max 2073 min
Histogram: 1 0 1 1 0 0 0 0 0 1

Total # of neighbors = 9089
Ave neighs/atom = 70.4574
Neighbor list builds = 100
Dangerous builds = 0
System init for write_data ...
Setting up Verlet run ...
  Unit style    : metal
  Current step  : 0
  Time step     : 0.002
Per MPI rank memory allocation (min/avg/max) = 4.983 | 4.983 | 4.983 Mbytes
Step Temp PotEng TotEng Press Volume Lx 
       0          600   -502.75433   -492.82715    14825.729    1514.5249    11.483972 
    2000    602.49684   -502.45504   -492.48655    -77.13466     1528.634    11.519523 
    4000    580.82684   -503.32048   -493.71053     10724.54    1517.1895    11.490703 
    6000    622.18246   -504.15869    -493.8645    16898.444    1510.8266    11.474617 
    8000    641.94852   -504.33595   -493.71472    14855.474    1512.2027      11.4781 
   10000    658.58713   -503.33174   -492.43522    7087.7114    1521.4486    11.501446 
   12000    567.20767   -503.20596   -493.82134    -5511.638    1534.4985    11.534236 
   14000    586.00211   -503.52036   -493.82478    -8949.388    1535.8043    11.537507 
   16000    636.51941   -502.11401   -491.58261   -3658.9762    1535.2428      11.5361 
   18000    574.59792   -501.52292   -492.01603    2462.6067     1526.051    11.513031 
   20000    566.15373   -504.13444   -494.76726    3988.1448    1521.9422    11.502689 
   22000    669.39495   -504.25044   -493.17511   -3125.5368    1529.8973    11.522696 
   24000    602.59606   -503.17807   -493.20793    8074.8973    1522.1589    11.503235 
   26000    605.75069   -504.16237   -494.14005    24133.243    1502.6857     11.45397 
   28000    547.13645    -505.4953   -496.44277    5343.4925    1518.3376    11.493601 
   30000    553.00808   -503.93759    -494.7879    4904.7501    1520.2704    11.498476 
   32000    509.43701   -502.99056   -494.56177   -13812.952    1539.3312    11.546332 
   34000    598.15901   -502.93257   -493.03585    4615.8533    1521.4237    11.501383 
   36000    634.21764   -503.98257   -493.48925   -5162.5162    1531.3837    11.526426 
   38000    579.26542   -503.10714   -493.52302   -9002.5688    1536.5959    11.539489 
   40000    594.29941   -504.62166    -494.7888     2859.053    1520.9414    11.500167 
   42000    575.56173   -504.00279   -494.47995   -1699.1945    1526.5491    11.514284 
   44000    625.53338   -503.13493    -492.7853    15106.461    1513.1681    11.480542 
   46000     678.0718    -503.6226    -492.4037    8167.1015    1518.4263    11.493825 
   48000    570.50759   -503.01797   -493.57875   -9387.0066    1540.5665    11.549419 
   50000    557.92295   -504.42216   -495.19116   -5033.1704    1529.8122    11.522482 
Loop time of 7.13958 on 4 procs for 50000 steps with 129 atoms

Performance: 1210.155 ns/day, 0.020 hours/ns, 7003.211 timesteps/s
98.6% CPU use with 4 MPI tasks x 1 OpenMP threads

MPI task timing breakdown:
Section |  min time  |  avg time  |  max time  |%varavg| %total
---------------------------------------------------------------
Pair    | 4.369      | 4.6416     | 4.8823     |   8.8 | 65.01
Neigh   | 0.003516   | 0.0037144  | 0.0038998  |   0.2 |  0.05
Comm    | 1.5436     | 1.7822     | 2.0528     |  14.0 | 24.96
Output  | 0.0481     | 0.053268   | 0.062976   |   2.5 |  0.75
Modify  | 0.51487    | 0.52069    | 0.52647    |   0.6 |  7.29
Other   |            | 0.138      |            |       |  1.93

Nlocal:    32.25 ave 36 max 29 min
Histogram: 1 0 0 0 2 0 0 0 0 1
Nghost:    942.5 ave 963 max 927 min
Histogram: 1 0 0 2 0 0 0 0 0 1
Neighs:    2236.75 ave 2643 max 1846 min
Histogram: 1 0 1 0 0 0 1 0 0 1

Total # of neighbors = 8947
Ave neighs/atom = 69.3566
Neighbor list builds = 51
Dangerous builds = 0
----STARTING----
Setting up Verlet run ...
  Unit style    : metal
  Current step  : 0
  Time step     : 0.002
Per MPI rank memory allocation (min/avg/max) = 6.609 | 6.609 | 6.609 Mbytes
Step v_my_time Temp Press Volume f_ave_vol f_ave_temp f_ave_press f_ave_latcon c_msdFe_2[1] c_msdFe_2[2] c_msdFe_2[3] c_msdFe_2[4] 
       0            0    557.92295   -5033.1704    1529.8122            0            0            0            0 2.9262191e-34            0 7.6693815e-33 7.9620034e-33 
    2000            4    562.42619    7482.2392    1519.6471    1526.0806    577.99944   -10.635625     2.878255  0.038754251  0.076434003  0.059258719   0.17444697 
    4000            8    623.36853    -4201.502    1532.7871    1526.4525     582.6262    56.591967    2.8784967  0.042127721  0.063121574  0.076009912   0.18125921 
    6000           12    575.79869    2752.4788    1524.3947    1526.7129    584.66339    51.741732     2.878657  0.047764494  0.072807376  0.070972533    0.1915444 
    8000           16    570.53355    25650.084    1501.0792    1526.8594    585.37904    6.7188415    2.8787493  0.067719719   0.07120964  0.044365009   0.18329437 
   10000           20    567.12948    15967.985    1508.8304     1527.072     588.5987     19.38709    2.8788836  0.069133752  0.073827312  0.050682456   0.19364352 
   12000           24    623.97822    888.05439    1527.3709    1527.2645    591.72852    9.9861842    2.8790032   0.10813954  0.096183428  0.065878443   0.27020142 
   14000           28    599.11492    6524.8622    1522.3187      1527.48    596.60151   -13.496995    2.8791397   0.13218324  0.097492834   0.14770069   0.37737676 
   16000           32    636.74896    -19527.51    1549.7871     1527.525    596.99291     11.83477    2.8791686   0.11945688  0.097388239   0.17691974   0.39376486 
   18000           36    617.68221   -920.78595    1529.7068    1527.6662     598.1723    15.392571    2.8792575    0.1181021  0.086453082   0.16315968   0.36771487 
   20000           40    589.62198    -7297.499    1533.7081     1527.702    598.67382    1.8316109      2.87928   0.14339246  0.095614787   0.13456371   0.37357096 
   22000           44    591.10103    8226.9067    1515.7852    1527.5273    596.96047    23.762892    2.8791709   0.17181006   0.12428209   0.15307048   0.44916263 
   24000           48    672.33841    1768.7008    1524.2243    1527.4676    596.26549    12.751515    2.8791336   0.14398445   0.10667147   0.12645009     0.377106 
   26000           52    599.72275   -13914.351    1541.9845    1527.4622    596.15623    7.5073818    2.8791311   0.14706981   0.10788791   0.12597827   0.38093599 
   28000           56    521.85527    3866.5596     1525.874    1527.3337    594.23931    12.748498    2.8790502   0.16645504   0.11700613   0.14663168   0.43009284 
   30000           60    643.86733   -5023.1358    1532.8279    1527.3013    593.97749   -2.9863598    2.8790307   0.17579015    0.1351724    0.1585997   0.46956225 
   32000           64    613.81315    -2263.975    1528.6077    1527.2664    594.11082    4.7541567     2.879009   0.24102448   0.19899611    0.2220238   0.66204439 
   34000           68    625.20985    5741.7215    1524.5388    1527.2622     594.3377    2.2124857    2.8790067    0.2589255    0.2296106    0.2559891    0.7445252 
   36000           72    588.83314    4102.3318    1522.7222     1527.221    593.79551   -4.8869184    2.8789811   0.31937798   0.23502353   0.34184989    0.8962514 
   38000           76    614.57794    7478.2169    1517.4429    1527.2211    593.59765   -1.6689069    2.8789808   0.28652732   0.23489115   0.33977902   0.86119748 
   40000           80    643.84137    1026.9553    1528.4849    1527.2114    593.48843   -8.0010566    2.8789746    0.2927879    0.2575992   0.35407138   0.90445848 
   42000           84    644.05871   -14419.886    1541.2181    1527.2685    594.89305  -0.57778591    2.8790105   0.31689248   0.37223371   0.36270973    1.0518359 
   44000           88    560.67424   -6834.6173    1535.8078    1527.3358    595.91277    1.9074477    2.8790529   0.36250024   0.31327012    0.3758316     1.051602 
   46000           92    601.86206   -15930.582    1541.8149    1527.3794    596.27302    4.6182166    2.8790803   0.41487329   0.32473533   0.39147467    1.1310833 
   48000           96    635.29898    -6331.261    1535.4267    1527.4097    596.98991    2.0919544    2.8790991   0.38570204   0.34840491    0.3803332    1.1144401 
   50000          100    626.39736    1917.6088    1527.9631    1527.4317    597.68321    5.2838851    2.8791128   0.39569739   0.35266897   0.40431939    1.1526858 
   52000          104    588.39103     7412.329    1515.6622    1527.4221    597.80533    6.8118012    2.8791068   0.40211569   0.35001699    0.3833999    1.1355326 
   54000          108    618.34963    13284.319     1515.007    1527.4189    597.76458    2.0573452     2.879105   0.36877505   0.36025439   0.38349094    1.1125204 
   56000          112    598.71341    17575.839    1509.7007    1527.3811    597.30058   0.88137822    2.8790811   0.41048372   0.35635506   0.40310352    1.1699423 
   58000          116    583.27594    9670.6635    1517.9654    1527.3561    597.08362 -0.0089478879    2.8790654   0.40693599   0.34688428    0.4171663    1.1709866 
   60000          120    519.34128    5618.2534    1517.6936     1527.337    596.54837    8.6923956    2.8790535   0.41567109   0.35940511   0.43927337    1.2143496 
   62000          124    623.51366    7004.9144    1523.2517    1527.3571    596.68394    6.4440051    2.8790661   0.40474122   0.38122875   0.42868619    1.2146562 
   64000          128    520.27592   -208.24048    1531.7213    1527.3905    597.44245   0.37428622    2.8790872   0.45048339   0.35283195   0.37763038    1.1809457 
   66000          132    573.67812    7642.2271    1522.0086    1527.4074    597.70703    3.0036045    2.8790978    0.4762368   0.34963214   0.42586679    1.2517357 
   68000          136    659.41436   -10911.267    1538.7417    1527.4367    598.22464   0.76594511    2.8791165   0.47036767   0.34757103   0.42998812    1.2479268 
   70000          140    644.12708   -12218.484    1544.0903    1527.4936    598.91943  -0.09376741    2.8791522   0.41341881   0.34098552   0.42472544    1.1791298 
   72000          144    564.42298    4151.8203    1523.3176    1527.5015    599.15658   -3.1308527    2.8791574   0.41266343   0.33711122    0.4312922    1.1810668 
   74000          148    598.20983   -897.83358    1532.3054    1527.5119    599.06299   -4.5749907    2.8791637   0.38852353   0.35283119    0.4364368    1.1777915 
   76000          152     656.8075    9285.8813    1518.4905     1527.522    599.26239    4.9138957      2.87917   0.39674551   0.35386315    0.4208731    1.1714818 
   78000          156    523.33911    9477.8316    1516.5261    1527.5167    599.16057   -1.4348296    2.8791668   0.40682104    0.3176496   0.42244492    1.1469155 
   80000          160    624.26871    2155.5376    1529.2003    1527.5422    599.46201  -0.52636787    2.8791829   0.41934254   0.31377664   0.41579436    1.1489135 
   82000          164    661.91394    5343.1437    1521.2514    1527.5585    599.91443     0.710457    2.8791931   0.43340743    0.2899735   0.44280402    1.1661849 
   84000          168    627.51775    9331.5202    1518.0777    1527.5735    600.14691   -2.1238957    2.8792026   0.40716253   0.32658179   0.41804677    1.1517911 
   86000          172    558.55708    8516.9088    1521.6405     1527.602    600.37378   -2.1200049    2.8792205   0.43922242   0.44885114    0.4058645    1.2939381 
   88000          176    590.63785   -10796.776    1536.3825    1527.6098    600.28501    -2.444638    2.8792253   0.44816091    0.4281134    0.3816892    1.2579635 
   90000          180    581.05389   -15764.767     1542.045    1527.6069     600.3358    4.3546505    2.8792234   0.43935967   0.44589195   0.39793476    1.2831864 
   92000          184    594.41559   -552.24849    1530.4103    1527.6095     600.3132    4.2794779    2.8792248   0.46462221    0.4306975   0.38413555    1.2794553 
   94000          188    555.85575   -134.85182    1528.7001    1527.5978    600.13141    1.7190893    2.8792177   0.47237929   0.45671749   0.38804724     1.317144 
   96000          192    525.73579   -12843.641    1544.3898    1527.5845    599.85387   0.47823797    2.8792094   0.48547848   0.45479346   0.39328851    1.3335604 
   98000          196    581.80896    2628.6659    1523.8061    1527.5814    599.78658   -1.4238513    2.8792075   0.48027167    0.4462568   0.40087437    1.3274028 
----FINISHED: 2/40 ---- T=600 -----
  100000          200    551.79003   -3474.6637    1532.2441    1527.5729    599.72524    4.2404762    2.8792021   0.46210286   0.48982668   0.38911522    1.3410448 
Loop time of 15.4062 on 4 procs for 100000 steps with 129 atoms

Performance: 1121.627 ns/day, 0.021 hours/ns, 6490.899 timesteps/s
98.6% CPU use with 4 MPI tasks x 1 OpenMP threads

MPI task timing breakdown:
Section |  min time  |  avg time  |  max time  |%varavg| %total
---------------------------------------------------------------
Pair    | 8.6341     | 9.3914     | 9.9466     |  16.4 | 60.96
Neigh   | 0.0057809  | 0.0060458  | 0.0062506  |   0.3 |  0.04
Comm    | 3.1161     | 3.6577     | 4.4011     |  25.7 | 23.74
Output  | 0.21298    | 0.22113    | 0.23649    |   1.9 |  1.44
Modify  | 1.8318     | 1.8438     | 1.8604     |   0.8 | 11.97
Other   |            | 0.2861     |            |       |  1.86

Nlocal:    32.25 ave 38 max 28 min
Histogram: 1 0 1 0 0 1 0 0 0 1
Nghost:    916 ave 926 max 902 min
Histogram: 1 0 0 0 0 1 0 1 0 1
Neighs:    2240 ave 2511 max 1911 min
Histogram: 1 0 0 1 0 0 0 0 1 1

Total # of neighbors = 8960
Ave neighs/atom = 69.4574
Neighbor list builds = 83
Dangerous builds = 0
System init for write_data ...
Setting up Verlet run ...
  Unit style    : metal
  Current step  : 0
  Time step     : 0.002
Per MPI rank memory allocation (min/avg/max) = 6.609 | 6.609 | 6.609 Mbytes
Step Temp PotEng TotEng Press Volume Lx 
       0          600   -502.04754   -492.12036   -2918.6281    1532.2441    11.528584 
    2000    582.55669   -503.40884   -493.77026    2847.0572    1523.1967    11.505849 
    4000    634.04033   -504.10101   -493.61062      7872.57    1518.5221    11.494066 
    6000    692.43543   -503.43816   -491.98161    7016.2796    1521.3861    11.501288 
    8000     608.1134   -503.25536   -493.19394     14427.67    1513.1676    11.480541 
   10000     563.1021    -503.4321   -494.11541   -12309.281    1540.2489    11.548626 
   12000    532.97831   -502.34378    -493.5255   -1457.5309    1531.5899    11.526943 
   14000    674.18078   -503.35435   -492.19983    10833.645    1516.4896    11.488936 
   16000    538.34014   -504.13424   -495.22724    3281.7731    1522.5985    11.504342 
   18000    632.19764   -504.82075   -494.36085   -1541.0258    1528.4932    11.519169 
   20000    607.96922   -502.58164   -492.52261   -12440.867    1541.3664    11.551418 
   22000    616.56151   -502.64085   -492.43966   -5695.3938    1536.0449    11.538109 
   24000    649.46559   -503.08951    -492.3439    -8478.396    1539.2785      11.5462 
   26000    602.71969   -502.24982   -492.27764    13773.357    1515.9957    11.487689 
   28000    592.74442   -503.99151   -494.18438   -1847.4848    1530.4237    11.524017 
   30000    576.92668   -503.47255   -493.92713    1836.7753    1525.6984    11.512145 
   32000    665.49379    -504.4554   -493.44461    189.91823    1525.3178    11.511187 
   34000    641.94991   -502.51687   -491.89562   -9080.6781    1537.1483    11.540871 
   36000    618.37995   -502.20003   -491.96875    9842.7654    1521.7321     11.50216 
   38000    638.87411   -501.19279   -490.62242    13802.616    1519.8071    11.497308 
   40000    636.24036   -503.74931   -493.22253   -701.55505    1525.9671     11.51282 
   42000    554.26951   -502.99375    -493.8232    -6638.222    1534.4565     11.53413 
   44000    601.70719   -502.87306   -492.91764   -8415.7046    1536.1429    11.538354 
   46000    633.43703     -502.558    -492.0776   -1701.5516    1529.5633    11.521857 
   48000    661.69098    -503.8917   -492.94382   -8214.9896    1536.1431    11.538355 
   50000    685.75648   -504.07118   -492.72513   -12769.167    1539.5273    11.546822 
Loop time of 7.17905 on 4 procs for 50000 steps with 129 atoms

Performance: 1203.502 ns/day, 0.020 hours/ns, 6964.712 timesteps/s
98.7% CPU use with 4 MPI tasks x 1 OpenMP threads

MPI task timing breakdown:
Section |  min time  |  avg time  |  max time  |%varavg| %total
---------------------------------------------------------------
Pair    | 4.3478     | 4.6365     | 4.8796     |   8.9 | 64.58
Neigh   | 0.0033424  | 0.0034866  | 0.0036154  |   0.2 |  0.05
Comm    | 1.5296     | 1.7696     | 2.0548     |  14.3 | 24.65
Output  | 0.10764    | 0.11175    | 0.11943    |   1.4 |  1.56
Modify  | 0.51667    | 0.51993    | 0.52602    |   0.5 |  7.24
Other   |            | 0.1378     |            |       |  1.92

Nlocal:    32.25 ave 34 max 30 min
Histogram: 1 0 1 0 0 0 0 0 0 2
Nghost:    944.5 ave 947 max 942 min
Histogram: 1 0 0 0 1 0 1 0 0 1
Neighs:    2227.25 ave 2480 max 1923 min
Histogram: 1 0 0 0 0 1 1 0 0 1

Total # of neighbors = 8909
Ave neighs/atom = 69.062
Neighbor list builds = 48
Dangerous builds = 0
----STARTING----
Setting up Verlet run ...
  Unit style    : metal
  Current step  : 0
  Time step     : 0.002
Per MPI rank memory allocation (min/avg/max) = 8.235 | 8.235 | 8.235 Mbytes
Step v_my_time Temp Press Volume f_ave_vol f_ave_temp f_ave_press f_ave_latcon c_msdFe_3[1] c_msdFe_3[2] c_msdFe_3[3] c_msdFe_3[4] 
       0            0    685.75648   -12769.167    1539.5273            0            0            0            0            0            0 8.2486534e-33 8.2486534e-33 
    2000            4    624.06426    6784.3322    1521.1333     1526.877    585.15487    50.852882    2.8787656  0.030157982  0.024365652  0.025922806   0.08044644 
    4000            8    539.08349   -1975.5048     1531.085    1526.8683     586.8782    57.223067    2.8787637    0.0362899  0.026085009  0.030319941  0.092694851 
    6000           12    621.03079   -1804.3465    1526.0768    1527.0599    588.45553    24.156995    2.8788818  0.030044103  0.042000235  0.039079767    0.1111241 
    8000           16    556.66025    13118.127    1513.9388    1527.4805    596.64978   -11.501856    2.8791452  0.043969593  0.054629874  0.046899775   0.14549924 
   10000           20    678.69607    4226.1985    1524.1356    1527.5406    598.33083   -2.2352922    2.8791841  0.035459067   0.10069146   0.03401601   0.17016653 
   12000           24    504.38599   -897.52155    1524.8666    1527.4692    596.64448    1.1398849    2.8791393  0.032908317   0.10230072  0.035826906   0.17103595 
   14000           28    603.55806    2563.9456    1523.2276    1527.4998    595.51072    2.2148729    2.8791573  0.032435995   0.10462245  0.034242042   0.17130049 
   16000           32    491.55425    1080.0241    1523.2528    1527.3323    594.43165    20.931448    2.8790521   0.05279721   0.14454867  0.046914404   0.24426029 
   18000           36    616.05122   -9652.9241    1535.3728    1527.2462    593.16626    5.7906487    2.8789976  0.045378283   0.14648188  0.052216043    0.2440762 
   20000           40     675.3451   -5541.7531    1532.2525    1527.1873    592.52942    5.3562698    2.8789602  0.073339993    0.1816821  0.069752733   0.32477482 
   22000           44    601.55134    19206.702     1505.606    1527.1957     592.6696   -3.8665969    2.8789652   0.06445146   0.15180898  0.098827089   0.31508753 
   24000           48    659.10696    2187.2855     1526.075    1527.2083    593.03179   -3.2552082    2.8789729  0.060807081   0.14797952    0.1145167    0.3233033 
   26000           52     668.4377   -14109.833    1543.6678    1527.3844    595.63317  -0.33777912    2.8790839   0.11499323    0.1712397   0.12858742   0.41482036 
   28000           56     614.5261   -7555.1181    1537.6868     1527.426    596.29165    9.1522976    2.8791097   0.10808431   0.16332142   0.12888329   0.40028902 
   30000           60    575.65556   -10876.784    1537.5446    1527.4283    596.02831    3.1704213    2.8791116  0.073654431   0.21024446   0.12728168   0.41118058 
   32000           64    575.76227    3352.5018    1520.8176    1527.3503    594.72296     13.56716    2.8790622  0.091738985     0.195691   0.18624052   0.47367051 
   34000           68    593.04312    10641.031     1519.292    1527.2896    594.01973     9.655002    2.8790242   0.14955988   0.22240026   0.21616258   0.58812273 
   36000           72    543.42965    17802.503    1511.4863    1527.3459     594.7791    6.3949005     2.879059   0.15598681   0.24433906   0.21427253    0.6145984 
   38000           76    583.94031   -5950.5165    1534.0223    1527.3829    595.57069    2.4213695    2.8790825   0.15674902   0.24095532   0.20260774   0.60031209 
   40000           80    693.24078   -8173.6455    1541.0539    1527.4167    596.40814    6.6660982    2.8791036   0.16303083   0.22510502   0.20316511   0.59130096 
   42000           84    610.10449   -6268.3024    1534.8528    1527.4789    597.81535    11.687234    2.8791428   0.20777208   0.22702203   0.21723118   0.65202529 
   44000           88    581.86798   -3595.1832    1526.5051     1527.485    598.15824    1.8892972    2.8791467   0.24096214   0.25943152   0.25292002   0.75331368 
   46000           92    609.03293   -22292.293    1550.8631    1527.5034    598.43905   -1.0435637    2.8791583   0.29658427   0.29705612   0.29795408   0.89159447 
   48000           96    569.77937   -4146.2288    1531.6485    1527.4893    598.36974    3.1593937    2.8791496   0.26373911     0.302304   0.28950214   0.85554525 
   50000          100    648.16485   -10049.043    1537.0734    1527.4889    598.15141    6.2245578    2.8791493   0.27108186   0.29156721   0.27988199   0.84253107 
   52000          104    574.15401   -2166.3102    1530.2113    1527.4592    597.48392    3.4417176    2.8791307   0.26226858   0.29614497   0.27327762   0.83169117 
   54000          108    608.14708   -1747.1312    1528.2308     1527.468    597.29229    5.5167131     2.879136   0.24559435   0.28773638   0.26093089   0.79426162 
   56000          112    604.92937    19118.648    1512.7023    1527.5162    598.21093    4.8180676    2.8791664   0.28152306   0.27224684   0.27007465   0.82384455 
   58000          116    548.64779    2737.3363    1526.3338    1527.5597    598.78146   -1.6799705    2.8791936   0.31026128   0.30230516   0.28439015   0.89695658 
   60000          120     591.2209   -14834.794    1540.2362    1527.5718    599.22088    1.9217485    2.8792011   0.35566548   0.29711027   0.27844435    0.9312201 
   62000          124    613.13817   -6728.1914    1534.5057    1527.5791    599.34633    6.3394276    2.8792056   0.39005963     0.277577   0.30106323   0.96869986 
   64000          128    549.39962    3262.9806    1522.2318     1527.567    598.98226     4.339291    2.8791978   0.39918188   0.31066209   0.33691805     1.046762 
   66000          132    561.48761    16420.809    1510.1167     1527.522    598.28537    5.0348556    2.8791693   0.43314249   0.33575171   0.36687957    1.1357738 
   68000          136    561.76816     9837.432    1523.4506    1527.4954     597.9951 -0.038738336    2.8791526   0.43599156   0.34036013   0.36921483    1.1455665 
   70000          140    647.40227   -5456.4706     1531.198    1527.4686    597.89238     2.643223     2.879136    0.4548634   0.34366485   0.36907235    1.1676006 
   72000          144    603.44973     117.1411    1526.1048    1527.4766    597.95456   -2.8457868     2.879141   0.44800813   0.39548619   0.36588374    1.2093781 
   74000          148    544.96397    -9503.139    1539.1879    1527.5222    598.38288   -2.0600999    2.8791696   0.45937658   0.38059819   0.36889305    1.2088678 
   76000          152    585.78204   -15075.483    1542.5569    1527.5314    598.61924    5.9017343    2.8791752   0.42141919   0.39885685   0.36226461    1.1825407 
   78000          156    624.06974   -11856.166    1540.3154    1527.5378    598.61998    4.4666045     2.879179   0.44081371   0.41384914   0.37022268    1.2248855 
   80000          160    613.79344    1536.0527    1527.1397    1527.5374    598.74315    5.0317505    2.8791789   0.41385406   0.40709887   0.43373114    1.2546841 
   82000          164    579.69252    387.71427    1528.3544    1527.5451    598.75126    7.5309894    2.8791839   0.41463253   0.41201845   0.45046128    1.2771123 
   84000          168    591.26884   -21259.851    1546.7518    1527.5465    598.77226    6.6959981    2.8791848    0.4298877   0.45265176   0.45630298    1.3388424 
   86000          172    636.23137   -6750.5766    1532.2721    1527.5479    598.70316    3.8479044    2.8791858   0.43847136   0.46061442   0.45401448    1.3531003 
   88000          176    633.96959   -153.44442     1529.952    1527.5561     599.0103    3.8966607     2.879191   0.44985683   0.48807639   0.45938297    1.3973162 
   90000          180    633.30041    2506.6372     1523.072    1527.5727    599.15324  -0.34054289    2.8792014   0.47217146   0.49252476   0.48667537    1.4513716 
   92000          184    581.85936   -9338.0454    1537.0383    1527.5646    598.85463    1.0281782    2.8791963   0.45883948   0.49033514   0.46943916    1.4186138 
   94000          188    573.90468   -449.17573    1527.9258    1527.5486    598.65882    5.0514431    2.8791861   0.47015237   0.51508374   0.48054308    1.4657792 
   96000          192    579.71578   -8430.4476    1536.9661    1527.5323    598.56198     5.384106    2.8791761   0.49796269   0.52027071   0.50890369    1.5271371 
   98000          196    619.38573    7253.5765    1521.8659    1527.5545    599.00243    6.5933466    2.8791897   0.54645524   0.47401479   0.50385404    1.5243241 
----FINISHED: 3/40 ---- T=600 -----
  100000          200    576.18409    8761.8317    1518.8657    1527.5799    599.40773    4.8236198    2.8792057   0.58154163   0.53605265   0.51668033    1.6342746 
Loop time of 15.4656 on 4 procs for 100000 steps with 129 atoms

Performance: 1117.317 ns/day, 0.021 hours/ns, 6465.957 timesteps/s
98.5% CPU use with 4 MPI tasks x 1 OpenMP threads

MPI task timing breakdown:
Section |  min time  |  avg time  |  max time  |%varavg| %total
---------------------------------------------------------------
Pair    | 8.8178     | 9.4219     | 9.9171     |  13.3 | 60.92
Neigh   | 0.0061061  | 0.0063697  | 0.0066035  |   0.2 |  0.04
Comm    | 3.0527     | 3.5195     | 4.0959     |  20.5 | 22.76
Output  | 0.32391    | 0.3319     | 0.3471     |   1.6 |  2.15
Modify  | 1.8705     | 1.898      | 1.9289     |   1.7 | 12.27
Other   |            | 0.288      |            |       |  1.86

Nlocal:    32.25 ave 34 max 31 min
Histogram: 1 0 0 2 0 0 0 0 0 1
Nghost:    966.25 ave 978 max 953 min
Histogram: 1 0 0 0 0 1 1 0 0 1
Neighs:    2259.5 ave 2423 max 2126 min
Histogram: 1 0 1 0 0 1 0 0 0 1

Total # of neighbors = 9038
Ave neighs/atom = 70.062
Neighbor list builds = 88
Dangerous builds = 0
System init for write_data ...
Setting up Verlet run ...
  Unit style    : metal
  Current step  : 0
  Time step     : 0.002
Per MPI rank memory allocation (min/avg/max) = 8.236 | 8.236 | 8.236 Mbytes
Step Temp PotEng TotEng Press Volume Lx 
       0          600   -502.99935   -493.07217    9038.9348    1518.8657    11.494933 
    2000    578.74704   -503.43665    -493.8611    8253.9983    1519.3223    11.496085 
    4000    562.43218   -504.06561      -494.76    4888.8539    1522.0565    11.502977 
    6000    674.52758   -501.55325   -490.39299   -8314.9457     1542.996    11.555487 
    8000    612.14262   -503.05408     -492.926    3701.9075    1523.7087    11.507138 
   10000    555.17003   -503.16029   -493.97484    -5441.777    1533.4803    11.531684 
   12000    581.73197   -503.25059   -493.62566    185.88545    1526.0932    11.513137 
   14000    641.10163    -504.3217   -493.71448    4250.4418    1522.0012    11.502838 
   16000    628.21744    -502.3268   -491.93275   -1975.4991    1532.7885     11.52995 
   18000    591.87767   -502.46563   -492.67283   -445.04732    1529.0665     11.52061 
   20000     601.8094   -503.86979   -493.91268   -8785.1964     1533.729    11.532307 
   22000    598.00144     -504.353   -494.45889   -5408.8887    1530.4674    11.524127 
   24000    621.21832   -503.39134    -493.1131   -12901.154    1541.1797    11.550952 
   26000    570.19734   -501.40748    -491.9734    5277.5597    1527.8929    11.517661 
   28000    588.28871   -503.26323   -493.52982   -10630.609    1537.8021    11.542507 
   30000     611.9741   -504.70216   -494.57686    2636.1364    1522.6117    11.504376 
   32000    566.87981   -503.47504   -494.09584    8747.0099    1518.3623    11.493663 
   34000    675.51876   -503.23494   -492.05828    2974.5453    1525.9933    11.512886 
   36000    642.81491   -503.50962   -492.87406   -24703.632    1550.8489    11.575058 
   38000    594.37744    -504.1133   -494.27915   -11578.788    1535.1293    11.535816 
   40000     607.2985    -502.3046   -492.25666    -19179.87    1549.8797    11.572646 
   42000    586.53002   -504.20878   -494.50447   -4675.9912    1530.4754    11.524147 
   44000    535.09325   -504.07453   -495.22126   -141.26351    1526.5374    11.514254 
   46000    547.99608   -503.35835   -494.29159    1836.9959    1528.0584    11.518077 
   48000    662.24083   -503.45476   -492.49779    12934.745    1513.9453    11.482507 
   50000    508.55929   -502.80539   -494.39112   -6634.8073     1533.497    11.531726 
Loop time of 7.4029 on 4 procs for 50000 steps with 129 atoms

Performance: 1167.110 ns/day, 0.021 hours/ns, 6754.110 timesteps/s
98.3% CPU use with 4 MPI tasks x 1 OpenMP threads

MPI task timing breakdown:
Section |  min time  |  avg time  |  max time  |%varavg| %total
---------------------------------------------------------------
Pair    | 4.4817     | 4.7507     | 5.0425     |  10.2 | 64.17
Neigh   | 0.0030563  | 0.0032215  | 0.0033686  |   0.2 |  0.04
Comm    | 1.5148     | 1.7836     | 2.0311     |  15.2 | 24.09
Output  | 0.16255    | 0.16654    | 0.17402    |   1.1 |  2.25
Modify  | 0.53499    | 0.55733    | 0.58076    |   2.6 |  7.53
Other   |            | 0.1415     |            |       |  1.91

Nlocal:    32.25 ave 35 max 30 min
Histogram: 1 0 1 0 0 0 1 0 0 1
Nghost:    963.25 ave 970 max 958 min
Histogram: 1 1 0 0 0 1 0 0 0 1
Neighs:    2251.25 ave 2665 max 1956 min
Histogram: 2 0 0 0 0 0 1 0 0 1

Total # of neighbors = 9005
Ave neighs/atom = 69.8062
Neighbor list builds = 44
Dangerous builds = 0
----STARTING----
Setting up Verlet run ...
  Unit style    : metal
  Current step  : 0
  Time step     : 0.002
Per MPI rank memory allocation (min/avg/max) = 9.862 | 9.862 | 9.862 Mbytes
Step v_my_time Temp Press Volume f_ave_vol f_ave_temp f_ave_press f_ave_latcon c_msdFe_4[1] c_msdFe_4[2] c_msdFe_4[3] c_msdFe_4[4] 
       0            0    508.55929   -6634.8073     1533.497            0            0            0            0 1.4571377e-33            0 4.036988e-33 5.4941257e-33 
    2000            4    578.31371    -1242.244    1530.2309     1527.789    603.17987    34.718553    2.8793373  0.038759844  0.068579298  0.038155915   0.14549506 
    4000            8    655.36746    20787.663    1508.9584    1528.1832    613.67981   -46.682738    2.8795883  0.033707323   0.07041237  0.054211088   0.15833078 
    6000           12    643.69716    4467.2987    1521.6431    1528.3135    616.61529   -33.860711    2.8796671  0.035692463  0.089260901   0.10739965   0.23235302 
    8000           16    586.45477    7289.1625    1518.2306     1528.102    612.95511   -25.439879    2.8795349  0.045270129  0.085975917  0.098167412   0.22941346 
   10000           20    607.85273   -1699.1014    1528.4276    1528.0463    610.82067   -26.775369    2.8794983  0.094944776   0.11434903  0.096313115   0.30560692 
   12000           24    598.68131    11043.687    1519.1269    1527.8167    605.16174   -17.923142    2.8793543   0.11851442   0.11179909  0.091758861   0.32207237 
   14000           28    581.62169    2097.0306    1522.5324    1527.7696     602.9686   -26.423852    2.8793248   0.12689499   0.11756305   0.10833786    0.3527959 
   16000           32     547.9237   -2915.4152    1531.4857    1527.6929    602.62926   -2.3592308    2.8792756   0.10548306   0.10952223    0.1041625   0.31916779 
   18000           36    516.29523    3895.3796    1521.0342    1527.6202    601.47108   0.59540149    2.8792295    0.1395238    0.1223604   0.16593107   0.42781528 
   20000           40    625.94413   -16502.358    1545.9149    1527.6078    599.97486   -2.1835836    2.8792225   0.15910837   0.12684753   0.18865585   0.47461176 
   22000           44     588.7918   -5248.4169    1533.4899    1527.6492    600.08145    3.9360348    2.8792489    0.1584442   0.13099527    0.1693335   0.45877296 
   24000           48    600.12886   -14128.402    1538.3503    1527.6563    600.25946   -5.3335422    2.8792542   0.15818282    0.1466446   0.19037976   0.49520718 
   26000           52    690.21428    -4009.753    1534.8511    1527.7126    601.80661    5.2587623    2.8792897   0.15007991   0.18168407   0.18764872    0.5194127 
   28000           56    612.07152    15463.427     1509.377    1527.7598     603.3184   -8.4737936    2.8793199   0.18328135   0.15887097    0.1791563   0.52130862 
   30000           60    582.79875    4486.0996    1521.3991     1527.752    603.66563   -1.9555729    2.8793152   0.17702815   0.12503777   0.18419456   0.48626048 
   32000           64    648.59759    11638.317    1519.4398    1527.7803    604.01582 -0.067477252    2.8793329   0.18275371   0.15817207   0.22335124   0.56427702 
   34000           68    585.81735     8297.956    1523.0264    1527.7606    603.43276  -0.48402852    2.8793209    0.1872728   0.16771782   0.21010585   0.56509646 
   36000           72    595.16115    10737.956     1514.383    1527.7211    602.21256    -4.412271    2.8792963   0.18370693   0.21174723   0.25545537   0.65090953 
   38000           76    596.28876    5588.4349    1524.2466    1527.6973     601.5379   -9.3342637    2.8792815   0.19530017   0.21750332    0.2470342   0.65983769 
   40000           80    646.67129   -5398.2776    1533.8902    1527.7384    602.49539   -7.6816114    2.8793073   0.19413424     0.260341   0.25540131   0.70987654 
   42000           84    577.75547   -6458.6376    1534.6375    1527.7389    602.76551   -7.5813503     2.879308   0.24086438   0.28705187   0.27353389   0.80145014 
   44000           88    622.32984   -4737.6911    1532.0468    1527.7873    603.45716    1.8681579    2.8793376   0.19371379   0.40475888   0.26908116   0.86755383 
   46000           92    678.22856    7778.6229    1522.2723    1527.8243    603.43007   0.46778221     2.879361   0.19476642   0.41246413   0.29753289   0.90476345 
   48000           96    605.83022     430.0632    1525.1198    1527.8587    603.40492   -8.7841016    2.8793823   0.23443993   0.41938584    0.2745695   0.92839526 
   50000          100    529.00684    5814.4595    1519.2598    1527.7846    602.38842   -5.0378641    2.8793358   0.26786135   0.50417301   0.32614551    1.0981799 
   52000          104    639.20874   -2274.6962    1526.8079    1527.7326    601.69847   -8.0387801    2.8793031   0.28238877   0.47207857   0.33778779    1.0922551 
   54000          108    579.71944    5316.4811    1521.0094    1527.6903    601.04813    3.6829124    2.8792768    0.2925454   0.47396175   0.34981872    1.1163259 
   56000          112    653.50548    19813.488    1508.4149    1527.6805    600.78978   0.51971212    2.8792705   0.33640357   0.55002108   0.36869625    1.2551209 
   58000          116    647.77208    9936.7553    1516.5057    1527.6625    600.37787   -3.3401434     2.879259   0.31816607   0.56821751   0.35277816    1.2391617 
   60000          120    537.12933   -5008.6638    1530.0509    1527.6358    599.83918   -3.2043529     2.879242   0.32237779    0.5695239   0.34678366    1.2386853 
   62000          124    592.69017   -11980.076    1541.8849    1527.6398    599.77983   -1.7300105    2.8792444   0.31718668   0.55498379   0.35546782    1.2276383 
   64000          128    653.34602    3272.2542    1523.4361    1527.6333    599.73624   -1.0389695    2.8792404   0.32137523   0.57040279   0.35101732    1.2427953 
   66000          132    561.14415   -1222.4306     1523.007    1527.6339    599.71529   -2.0407216    2.8792405   0.30511445   0.56715167   0.35953266    1.2317988 
   68000          136    604.12773   -13671.148    1539.7641    1527.6264    599.62697   -3.5717846     2.879236   0.32571488   0.58828092   0.39210399    1.3060998 
   70000          140      609.745   -21594.545    1552.9021    1527.6194    599.67485   0.96793252    2.8792315   0.34000404   0.60124634   0.36607311    1.3073235 
   72000          144    707.09859    6914.7331    1519.4195     1527.604    599.74059    2.9830722    2.8792217   0.34978486   0.60652576   0.39391171    1.3502223 
   74000          148    652.94935    8664.5465    1518.6566    1527.6313    600.23112   0.64641649    2.8792389    0.3657848   0.66360565   0.38360012    1.4129906 
   76000          152    575.01769   -14873.486    1542.2153    1527.6287    600.36586   -1.5015373    2.8792375   0.35541757   0.70296237   0.40161723    1.4599972 
   78000          156    596.05285   -5391.1459    1533.9853    1527.6609    600.79597   -2.0379301     2.879258   0.39003091   0.65832329   0.37047566    1.4188299 
   80000          160    654.51694   -7720.0385    1539.7604    1527.6932     601.1267   -5.2697627    2.8792784   0.34705163   0.64275779    0.3673298    1.3571392 
   82000          164    612.53911   -4868.7812    1532.1425     1527.703    601.28671   -1.7778888    2.8792846   0.36767427   0.61983794    0.3838504    1.3713626 
   84000          168    556.02287   -2335.9137    1527.4329    1527.6948    601.32526   -1.6043416    2.8792795   0.35672253   0.63540762   0.38625746    1.3783876 
   86000          172    627.04534   -5802.1806    1540.6097    1527.6905    601.58274   -5.7001901    2.8792769   0.33035827   0.63779554   0.41057481    1.3787286 
   88000          176    640.33182    6372.1893    1523.1619    1527.7271    602.09747   -7.0672282    2.8792998   0.37453597    0.6184812   0.43416659    1.4271838 
   90000          180    554.90453    7824.0868    1519.8355    1527.7436    602.21602    -5.969194    2.8793103   0.38806995    0.6682543   0.41726064    1.4735849 
   92000          184    604.21769   -1576.8017    1530.1921    1527.7323    602.04597   -4.9239282    2.8793028   0.42518037   0.75555513    0.5005654    1.6813009 
   94000          188    611.86759   -4597.6777    1532.4927    1527.7262    601.93579    -4.568573    2.8792992   0.43569828   0.74084765   0.51629097    1.6928369 
   96000          192    537.35241   -9839.9655    1539.7478    1527.7125    601.53321   -2.1420704    2.8792907   0.44249075   0.78538155   0.50663565    1.7345079 
   98000          196    536.99149     4941.164    1517.9878    1527.6974    601.06474   -1.8541556    2.8792812   0.45283884   0.74640159   0.52241854     1.721659 
----FINISHED: 4/40 ---- T=600 -----
  100000          200    642.64595    6523.9716    1520.7096     1527.676    600.77554   -3.3723589    2.8792677   0.45649162     0.828646   0.49018289    1.7753205 
Loop time of 15.6649 on 4 procs for 100000 steps with 129 atoms

Performance: 1103.103 ns/day, 0.022 hours/ns, 6383.695 timesteps/s
98.4% CPU use with 4 MPI tasks x 1 OpenMP threads

MPI task timing breakdown:
Section |  min time  |  avg time  |  max time  |%varavg| %total
---------------------------------------------------------------
Pair    | 8.9116     | 9.4756     | 10.039     |  13.9 | 60.49
Neigh   | 0.0065844  | 0.0068452  | 0.0071089  |   0.2 |  0.04
Comm    | 3.0238     | 3.5508     | 4.0805     |  21.0 | 22.67
Output  | 0.43598    | 0.44389    | 0.45885    |   1.3 |  2.83
Modify  | 1.8639     | 1.899      | 1.9367     |   2.2 | 12.12
Other   |            | 0.2888     |            |       |  1.84

Nlocal:    32.25 ave 35 max 30 min
Histogram: 1 0 1 0 0 0 1 0 0 1
Nghost:    940.75 ave 948 max 933 min
Histogram: 2 0 0 0 0 0 0 0 0 2
Neighs:    2261.25 ave 2645 max 1916 min
Histogram: 1 0 1 0 0 0 1 0 0 1

Total # of neighbors = 9045
Ave neighs/atom = 70.1163
Neighbor list builds = 94
Dangerous builds = 0
System init for write_data ...
Setting up Verlet run ...
  Unit style    : metal
  Current step  : 0
  Time step     : 0.002
Per MPI rank memory allocation (min/avg/max) = 9.862 | 9.862 | 9.862 Mbytes
Step Temp PotEng TotEng Press Volume Lx 
       0          600   -503.28135   -493.35418    6028.3786    1520.7096    11.499583 
    2000      586.573    -503.5415   -493.83647    15278.607    1510.6304    11.474121 
    4000    543.41186   -503.12301    -494.1321    7593.4707    1520.0184     11.49784 
    6000    535.74331   -502.26179   -493.39776     3565.731    1523.1823    11.505813 
    8000    620.68461   -503.23425   -492.96483    1925.0741    1524.0646    11.508034 
   10000    635.86468   -504.86778   -494.34721    6659.4059    1518.8017    11.494772 
   12000    616.49146   -504.16206   -493.96203   -3103.4242    1528.6776    11.519633 
   14000    656.87362   -503.80023   -492.93206     -3495.63    1529.5584    11.521845 
   16000    596.56745   -502.95383   -493.08344    5741.3031    1521.8432     11.50244 
   18000    564.96164   -503.36168   -494.01422    3392.3083    1524.1702    11.508299 
   20000    528.25578    -505.1895   -496.44935   -6667.4543    1528.3073    11.518703 
   22000    630.19938    -505.0713   -494.64446   -562.57295    1527.7872    11.517396 
   24000    548.19168   -503.63078   -494.56079    -1717.141    1525.4377    11.511489 
   26000    673.24971    -502.8384   -491.69928    24.837423    1529.9538    11.522838 
   28000    619.37395   -502.80828   -492.56055   -3880.1367    1531.8922    11.527702 
   30000    559.86525   -503.19482   -493.93168    6483.8934    1518.4756    11.493949 
   32000    549.77817   -502.30096   -493.20472    12104.859    1519.9469     11.49766 
   34000    608.89845   -503.47817   -493.40377     3154.182    1526.5863    11.514377 
   36000    621.43416   -504.03048   -493.74867    15722.519    1511.1956    11.475551 
   38000    640.13547   -504.43881   -493.84758    3755.1376    1521.2896    11.501045 
   40000    622.01968   -504.27515   -493.98364    157.90954    1527.2267    11.515987 
   42000    605.14306   -503.34445   -493.33218   -5484.4507    1532.8399    11.530079 
   44000    597.45468   -502.49521   -492.61014    5973.4861    1520.0065    11.497811 
   46000    636.06479   -504.58083   -494.05695     10448.94    1514.2609    11.483305 
   48000    586.96414   -502.85529   -493.14379   -944.62228    1528.4051    11.518948 
   50000    661.98184   -501.88326   -490.93057   -16378.272    1549.9435    11.572805 
Loop time of 7.39059 on 4 procs for 50000 steps with 129 atoms

Performance: 1169.055 ns/day, 0.021 hours/ns, 6765.363 timesteps/s
98.3% CPU use with 4 MPI tasks x 1 OpenMP threads

MPI task timing breakdown:
Section |  min time  |  avg time  |  max time  |%varavg| %total
---------------------------------------------------------------
Pair    | 4.3562     | 4.7017     | 4.9985     |  11.2 | 63.62
Neigh   | 0.0026209  | 0.0027569  | 0.002892   |   0.2 |  0.04
Comm    | 1.5078     | 1.7906     | 2.1229     |  17.3 | 24.23
Output  | 0.21632    | 0.22037    | 0.22791    |   1.0 |  2.98
Modify  | 0.52297    | 0.53569    | 0.55059    |   1.5 |  7.25
Other   |            | 0.1395     |            |       |  1.89

Nlocal:    32.25 ave 37 max 30 min
Histogram: 1 2 0 0 0 0 0 0 0 1
Nghost:    944.25 ave 955 max 932 min
Histogram: 1 0 1 0 0 0 0 0 0 2
Neighs:    2253.75 ave 2696 max 1903 min
Histogram: 1 1 0 0 0 1 0 0 0 1

Total # of neighbors = 9015
Ave neighs/atom = 69.8837
Neighbor list builds = 38
Dangerous builds = 0
----STARTING----
Setting up Verlet run ...
  Unit style    : metal
  Current step  : 0
  Time step     : 0.002
Per MPI rank memory allocation (min/avg/max) = 11.49 | 11.49 | 11.49 Mbytes
Step v_my_time Temp Press Volume f_ave_vol f_ave_temp f_ave_press f_ave_latcon c_msdFe_5[1] c_msdFe_5[2] c_msdFe_5[3] c_msdFe_5[4] 
       0            0    661.98184   -16378.272    1549.9435            0            0            0            0 5.8524383e-33 5.3746882e-35 2.8903879e-33 8.796573e-33 
    2000            4    574.81947   -14812.044    1540.6283    1527.4949    602.79059    23.345088    2.8791572  0.040664283  0.035485937  0.030596708   0.10674693 
    4000            8    635.32452    2113.9577    1525.2244    1527.4772    597.47201   -6.4993661    2.8791422  0.076856297  0.043426765  0.034968119   0.15525118 
    6000           12    570.58879    8039.1584      1521.18    1527.1112     592.3116   -3.8054376    2.8789099   0.11452651  0.074945552  0.036391162   0.22586322 
    8000           16    578.99806    15549.158    1513.1338    1527.2268    593.86181   -17.234708    2.8789824   0.11108784    0.1137618  0.038238648    0.2630883 
   10000           20    549.51229   -6298.0282    1534.3676    1526.9781    590.73222    5.8608192    2.8788281   0.12237553   0.11203418  0.042142841   0.27655255 
   12000           24    585.04428    5185.9295     1523.199    1526.9607    590.82701   -5.8194022    2.8788189   0.16814246   0.11762992  0.050555224   0.33632761 
   14000           28    678.84101   -9144.2764    1540.7289    1527.0411    594.43034    2.0028748    2.8788697   0.30044579   0.14518383   0.11057411   0.55620373 
   16000           32    622.30086    5882.6578    1523.1762    1527.2475    597.74056    2.9417352    2.8789988   0.30167297   0.11463447  0.064595837   0.48090328 
   18000           36    584.97414    4393.8552     1523.918     1527.331    600.10633     1.282957     2.879051   0.31212233   0.11422712  0.057302192   0.48365164 
   20000           40    589.01355    9167.6426    1516.5484    1527.3457    600.00045    6.1014619    2.8790594   0.30696377   0.11626935  0.060396605   0.48362973 
   22000           44    598.10815     2981.407    1522.6931    1527.4294    601.72239   -17.830299    2.8791125   0.35706323   0.11991691   0.10700396   0.58398411 
   24000           48    665.63262   -5733.5618    1534.8244    1527.4204    602.50461   -6.5724202    2.8791057   0.38767715   0.11676185  0.095882358   0.60032135 
   26000           52    605.34859    6605.0125    1520.4523    1527.4664    603.26886   0.48765209    2.8791352   0.35646296   0.11166926  0.096088443   0.56422066 
   28000           56    578.70741   -8725.2119    1540.5202    1527.4337    602.44743    3.8177789    2.8791151   0.32485103   0.12328562   0.11006031   0.55819696 
   30000           60    578.95947   -146.10505     1525.124    1527.4391    601.28989    8.2434246    2.8791174   0.35057408   0.11414493  0.086908851   0.55162787 
   32000           64    610.77365    6967.4202    1516.3092    1527.3807    599.77433    5.2696093    2.8790805   0.35461364   0.11959197   0.08749031   0.56169592 
   34000           68    555.12304   -6521.4977    1536.1073    1527.3527    599.12294    6.6835556    2.8790635   0.38271809   0.13354313   0.09811007   0.61437129 
   36000           72    635.05777    6776.6193    1521.1253    1527.4101    600.10637    4.1527645    2.8790996   0.38547086   0.12983505  0.097580746   0.61288666 
   38000           76     638.4131    9087.7786    1516.4097    1527.4517    600.72874    2.8343674    2.8791255   0.36044795   0.15671766   0.10441199   0.62157759 
   40000           80    536.91287    2572.5162    1524.5069    1527.4323    600.69989   -4.7547036    2.8791138   0.35554994   0.12691948   0.11032949    0.5927989 
   42000           84    524.34576   -2009.7845    1528.9218     1527.419    600.40389     1.077074    2.8791053   0.35602568   0.14000682   0.10591934   0.60195184 
   44000           88    640.37961    12122.363    1518.2098    1527.4292    599.95956    3.4530394    2.8791118   0.33193247   0.14021318  0.092944604   0.56509025 
   46000           92    603.82209    2909.7479    1526.1095    1527.4814    600.25858   0.52297482    2.8791444   0.38192626   0.13841541  0.095362609   0.61570428 
   48000           96    654.53124    6305.4898    1523.6965    1527.5291    600.58593   -6.7447495    2.8791739   0.38861448   0.15355141   0.11152479   0.65369068 
   50000          100    601.04572   -3509.4372    1527.7775    1527.5144    600.77808    2.7256613     2.879165   0.36921437   0.14496455  0.096455223   0.61063415 
   52000          104    669.79444   -3584.1061    1529.7185    1527.5291    601.25137     4.742017    2.8791742   0.42257532    0.2094502   0.16983648   0.80186199 
   54000          108    627.16066    4335.2421    1526.2079    1527.5643    601.69636  0.096322211    2.8791967   0.42573203   0.18794565   0.15899119   0.77266887 
   56000          112    665.76365   -2243.2718    1533.4615    1527.5952    602.19579  -0.85444841    2.8792165   0.41563786   0.21690318   0.14055154   0.77309258 
   58000          116    667.48966   -6.2369048    1527.9403    1527.6089     602.6008  -0.98395159     2.879225   0.44061361   0.20323624    0.1446541   0.78850395 
   60000          120    642.08224    3335.7866    1522.8938    1527.5895    602.78311    2.7845604    2.8792127   0.39512442   0.23497141   0.14864113   0.77873696 
   62000          124    599.85172     8484.436    1515.6284     1527.628    603.26609   -3.7426373    2.8792369   0.41118556   0.24607136   0.15147716   0.80873408 
   64000          128     717.7244    9369.9604    1519.5773    1527.6442    603.28916   -3.8584452    2.8792473   0.41888996    0.2710216   0.18212726   0.87203883 
   66000          132    582.82569   -3744.7853    1534.9095    1527.6613    604.02145   -3.0541326    2.8792578   0.49555673   0.28357603   0.36962183    1.1487546 
   68000          136    654.89397   -6557.3158    1535.0496    1527.6786    604.34497   -1.0194271    2.8792687   0.50380134   0.30206003   0.38326342    1.1891248 
   70000          140    566.20877    5652.0412    1523.9351    1527.7093    604.86708    5.9050089    2.8792881   0.51611168   0.29737078   0.40959113    1.2230736 
   72000          144    585.27432   -7207.7486    1533.8125    1527.7208    604.83324 -0.026877387    2.8792953   0.51522811   0.28894353   0.40453036     1.208702 
   74000          148    599.41151    -1478.245    1525.5552    1527.7168    605.09365   0.11196997    2.8792926   0.56882186   0.38035365   0.44980623    1.3989817 
   76000          152    662.77265    4117.6992    1523.4794    1527.7058    605.17864    2.2703944    2.8792856   0.56872185   0.41835478   0.42081512    1.4078917 
   78000          156    602.04086    7256.5409    1519.5198    1527.7145    605.34766   -4.8669283    2.8792912    0.5611011   0.40593023   0.43936681    1.4063981 
   80000          160    527.49729   -873.08881    1527.9203    1527.6771    604.80882  -0.42313421    2.8792676   0.56633905   0.37722507   0.41097309    1.3545372 
   82000          164    541.55799   -18406.822    1545.6159    1527.6378    604.22451   -3.4138804    2.8792428   0.59897133   0.43859619   0.47029811    1.5078656 
   84000          168    646.22568    11173.783    1513.3586    1527.6326     603.9034     1.880794    2.8792397   0.57596292   0.42350211   0.44561584    1.4450809 
   86000          172    575.24016    5913.6384    1523.7892    1527.6324    603.54285   0.98828887    2.8792395    0.5792486   0.43034616   0.45726025     1.466855 
   88000          176     533.9751   -3416.2964    1530.9829    1527.6301    603.17361    -3.652769    2.8792383   0.58382678   0.43760875   0.44204791    1.4634834 
   90000          180    662.53697   -10920.134    1543.7011    1527.6609    603.43365   -6.4974144    2.8792575   0.57080747   0.41858072   0.44714315    1.4365313 
   92000          184    554.57209    1498.4488    1524.9452    1527.6555    603.71604   -1.3890741    2.8792541   0.58664155   0.40575328   0.46325588    1.4556507 
   94000          188      568.718   -3002.2359    1531.7184    1527.6784    604.00385   -1.6587943    2.8792688   0.57475765   0.41635627   0.46193251    1.4530464 
   96000          192    569.75405   -944.75697    1529.8917    1527.6869    603.90666   0.55082074    2.8792742   0.65073708   0.45830003   0.48749326    1.5965304 
   98000          196    523.98697    1933.3547     1528.939    1527.7275    604.27646   -1.3814326    2.8792998   0.64265107   0.44542648   0.45895476    1.5470323 
----FINISHED: 5/40 ---- T=600 -----
  100000          200    639.68705   -6860.1587    1535.7795     1527.732    604.37038   -4.7342323    2.8793027   0.64577358   0.50272096   0.51138563    1.6598802 
Loop time of 15.7425 on 4 procs for 100000 steps with 129 atoms

Performance: 1097.667 ns/day, 0.022 hours/ns, 6352.242 timesteps/s
98.4% CPU use with 4 MPI tasks x 1 OpenMP threads

MPI task timing breakdown:
Section |  min time  |  avg time  |  max time  |%varavg| %total
---------------------------------------------------------------
Pair    | 8.9024     | 9.4618     | 10.003     |  13.3 | 60.10
Neigh   | 0.0071175  | 0.0074339  | 0.0077004  |   0.3 |  0.05
Comm    | 3.0326     | 3.5478     | 4.0825     |  20.6 | 22.54
Output  | 0.54353    | 0.55143    | 0.56628    |   1.2 |  3.50
Modify  | 1.8583     | 1.8856     | 1.9153     |   1.6 | 11.98
Other   |            | 0.2885     |            |       |  1.83

Nlocal:    32.25 ave 34 max 31 min
Histogram: 1 0 0 2 0 0 0 0 0 1
Nghost:    883.25 ave 891 max 876 min
Histogram: 1 0 1 0 0 0 0 1 0 1
Neighs:    2236.75 ave 2483 max 1940 min
Histogram: 1 0 1 0 0 0 0 0 0 2

Total # of neighbors = 8947
Ave neighs/atom = 69.3566
Neighbor list builds = 102
Dangerous builds = 0
System init for write_data ...
Setting up Verlet run ...
  Unit style    : metal
  Current step  : 0
  Time step     : 0.002
Per MPI rank memory allocation (min/avg/max) = 11.49 | 11.49 | 11.49 Mbytes
Step Temp PotEng TotEng Press Volume Lx 
       0          650   -502.63798   -491.88354   -6741.4867    1535.7795    11.537444 
    2000    612.38509   -501.42191   -491.28981   -9320.1525    1542.4963     11.55424 
    4000    726.94055    -502.2855   -490.25805   -17287.564    1551.1873      11.5759 
    6000     596.4821   -503.06739   -493.19842    -796.0368    1529.2233    11.521003 
    8000    616.48103   -501.90536    -491.7055    7579.5542    1520.2247    11.498361 
   10000    708.19325   -502.65303   -490.93577   -3487.4383    1534.2346    11.533574 
   12000    678.92579   -502.11182   -490.87879    1662.6647    1530.7098    11.524735 
   14000    623.08648   -502.76836   -492.45921   -4847.8263    1535.0497    11.535617 
   16000    602.36184   -501.66132   -491.69506   -7853.2185    1541.1296    11.550826 
   18000    699.05989   -502.03181   -490.46566   -7348.1892    1537.4633    11.541659 
   20000    679.97029   -501.37731     -490.127    4768.7186    1529.0536    11.520577 
   22000    558.15471   -500.99183     -491.757   -6398.4325    1535.8904    11.537722 
   24000    692.56282    -503.7786   -492.31994    1902.0079    1525.7939    11.512385 
   26000    632.47079   -500.98169   -490.51727   -10027.322    1542.9683    11.555418 
   28000    598.58001   -501.70889    -491.8052   -1094.1676    1530.2619    11.523611 
   30000    616.16716   -504.03671   -493.84204    2836.3226    1521.8739    11.502517 
   32000    621.22739   -503.47004   -493.19165   -1231.8122     1527.532    11.516755 
   34000    659.39553   -501.34528   -490.43538   -11353.087    1542.5893    11.554472 
   36000    599.46059   -502.32964   -492.41138    -11578.87    1540.1861    11.548469 
   38000    653.21817   -501.57497   -490.76728   -2888.8588    1533.1454    11.530845 
   40000    706.47428   -501.22435   -489.53552    4771.9714    1529.1055    11.520708 
   42000    614.82961     -501.078   -490.90546    7584.1801    1521.3613    11.501225 
   44000    652.06553   -503.12368   -492.33506    16289.744    1512.2322    11.478175 
   46000    689.91574   -502.35095   -490.93609    1565.8878    1531.0727    11.525646 
   48000    701.92249   -502.88328   -491.26977    13745.926    1513.6041    11.481645 
   50000    592.06587   -502.22996   -492.43405   -742.58313     1529.357    11.521339 
Loop time of 7.464 on 4 procs for 50000 steps with 129 atoms

Performance: 1157.557 ns/day, 0.021 hours/ns, 6698.823 timesteps/s
98.0% CPU use with 4 MPI tasks x 1 OpenMP threads

MPI task timing breakdown:
Section |  min time  |  avg time  |  max time  |%varavg| %total
---------------------------------------------------------------
Pair    | 4.4922     | 4.7608     | 5.0108     |   8.8 | 63.78
Neigh   | 0.0050249  | 0.0052618  | 0.0054915  |   0.2 |  0.07
Comm    | 1.4888     | 1.7163     | 1.9636     |  13.3 | 22.99
Output  | 0.27036    | 0.27431    | 0.2817     |   0.8 |  3.68
Modify  | 0.54303    | 0.56677    | 0.59166    |   2.8 |  7.59
Other   |            | 0.1405     |            |       |  1.88

Nlocal:    32.25 ave 36 max 30 min
Histogram: 1 1 0 1 0 0 0 0 0 1
Nghost:    912.5 ave 923 max 902 min
Histogram: 2 0 0 0 0 0 0 0 0 2
Neighs:    2259 ave 2392 max 1965 min
Histogram: 1 0 0 0 0 0 0 0 1 2

Total # of neighbors = 9036
Ave neighs/atom = 70.0465
Neighbor list builds = 73
Dangerous builds = 0
----STARTING----
Setting up Verlet run ...
  Unit style    : metal
  Current step  : 0
  Time step     : 0.002
Per MPI rank memory allocation (min/avg/max) = 13.11 | 13.11 | 13.11 Mbytes
Step v_my_time Temp Press Volume f_ave_vol f_ave_temp f_ave_press f_ave_latcon c_msdFe_6[1] c_msdFe_6[2] c_msdFe_6[3] c_msdFe_6[4] 
       0            0    592.06587   -742.58313     1529.357            0            0            0            0            0            0 1.875169e-33 1.875169e-33 
    2000            4    717.75419   -6549.8793     1542.467    1531.1446    666.74626    7.1835736    2.8814288  0.042028294  0.021491191  0.039141081   0.10266057 
    4000            8    652.69448   -16681.399    1549.1359    1531.0874    668.89542    -87.53793    2.8814005    0.2233562   0.09304647  0.066948844   0.38335151 
    6000           12    689.46161   -1980.9078    1530.5712    1531.3126    671.86225   -40.161324     2.881546   0.29308618  0.095065201  0.087517436   0.47566882 
    8000           16    654.02192    15160.907    1514.9075    1531.0877    667.69215   -44.787312    2.8814052   0.31615712   0.12821544   0.13810716   0.58247972 
   10000           20    654.51617    666.36176    1529.5104    1530.9314    665.25721   -24.122054    2.8813081   0.34695427   0.18758012   0.17444661     0.708981 
   12000           24    583.10721    1180.5559    1522.9478    1530.7439    662.84597   -5.2995105    2.8811898   0.30507451   0.22896509   0.20127664   0.73531623 
   14000           28    710.41514    3682.9913    1524.9434    1530.4145    658.03778    -10.80615    2.8809846   0.31705609   0.22996934   0.17819579   0.72522123 
   16000           32    657.41175    2805.6342    1528.3019    1530.3993    657.30365   -3.3968313    2.8809747   0.44911525   0.26806783   0.21740155   0.93458463 
   18000           36    583.96645    -17280.46     1545.652    1530.3106     655.0823   -9.3534262    2.8809199   0.43252685   0.27669158   0.20165299   0.91087143 
   20000           40    558.98448    1371.3995    1527.2194    1530.1537    652.29874    -17.01461    2.8808209   0.45831083    0.2853604   0.24225154   0.98592277 
   22000           44    644.61962    7019.3359    1523.3457    1530.0854    651.28974   -1.6974416    2.8807772   0.42496016   0.28904668   0.21490757   0.92891441 
   24000           48    655.63561    4794.1007    1526.8365    1529.9724     649.1269    10.234782    2.8807059   0.46164069    0.3075465   0.24954574    1.0187329 
   26000           52    624.45066    1847.0027     1525.824    1530.0127    649.01177   -21.386256    2.8807316   0.49369998   0.31740438   0.25539278    1.0664971 
   28000           56    641.64278   -3587.8027     1534.854     1530.075    649.58128    9.0459211    2.8807708   0.50360646   0.31419679   0.24584716    1.0636504 
   30000           60    593.10439   -5661.2495    1534.8025    1530.0793    649.27403    6.2960422    2.8807741   0.58334716   0.33804733   0.25725444    1.1786489 
   32000           64    609.35732    7094.3648    1526.2092    1530.1124    648.72661   -8.3362454    2.8807948   0.53020042   0.31225863   0.25186326    1.0943223 
   34000           68    687.91654    725.75196    1531.9158    1530.0553    647.81395    3.0026359    2.8807593   0.60987814    0.3163712   0.28919705    1.2154464 
   36000           72    601.14628   -6561.0651    1535.6116    1530.0465    647.25499    1.9316824    2.8807527   0.62910326   0.33426357    0.2889011    1.2522679 
   38000           76    622.27227     14237.83    1513.4756    1529.9826    646.13735   -1.8533755    2.8807127   0.72140066   0.36849978    0.3488453    1.4387457 
   40000           80    672.76202    9074.6498    1524.8101    1530.0016    646.14101   -1.5673709    2.8807249   0.73820006   0.39871416   0.35469416    1.4916084 
   42000           84    738.00977    10594.747    1523.6901    1530.0083     646.7234      5.84877    2.8807286   0.72568127   0.42428293   0.44522488    1.5951891 
   44000           88    674.49031     2833.081    1527.3207    1530.0836     648.0016     12.61517    2.8807758   0.84258776   0.46351638   0.42341057    1.7295147 
   46000           92     668.7652   -6320.0836    1537.3871    1530.0883    648.05215    1.0047198     2.880779   0.81430248   0.46194562   0.44519873    1.7214468 
   48000           96    661.55085    3216.9521    1527.8484    1530.0815    647.77762    6.2841785    2.8807747   0.84610855   0.45647753   0.42723693     1.729823 
   50000          100    698.93427   -8611.6475    1543.3208    1530.1102     648.1319    1.0278587    2.8807931   0.82057312   0.46154515   0.44401394    1.7261322 
   52000          104     559.0548   -4516.3046    1534.1542    1530.1068     648.2627 -0.058034297    2.8807907   0.78598241   0.43450911   0.44090426    1.6613958 
   54000          108    602.36038   -1728.9408    1528.2374    1530.0687    647.60599   0.22550756    2.8807667   0.84188433   0.45635381   0.49805331    1.7962915 
   56000          112    607.84642    3305.5868    1523.6322    1530.0206    646.90925    2.6220663    2.8807368   0.82623658   0.45773132   0.49232602    1.7762939 
   58000          116    696.83464   -14647.672    1548.6569    1529.9953    646.79418   -1.6699641    2.8807213   0.91239861   0.50751547   0.44664075    1.8665548 
   60000          120    590.45105   -1483.6138    1529.1898    1529.9723    646.87831  -0.76799098    2.8807067   0.89488405   0.48706215   0.46887817    1.8508244 
   62000          124    628.75684    15136.646    1513.8912    1529.9968    647.45369   -4.2572246    2.8807223   0.95930923     0.500132   0.44428176     1.903723 
   64000          128    630.46853    7194.7485    1524.8653    1530.0063    647.78804    3.0803329    2.8807283   0.93663116   0.51143296    0.4598838    1.9079479 
   66000          132    673.81677   -1758.7708    1533.8025    1530.0322    648.21985    5.4144458    2.8807443    1.0326712   0.57139341   0.51096609    2.1150307 
   68000          136    627.51981    -5904.992    1532.0449    1530.0225    648.01728    4.9844858    2.8807383    1.0772026   0.59104398   0.52669466    2.1949413 
   70000          140    674.25825   -2127.4687    1531.2001    1530.0255    648.09325   0.17284023    2.8807402     1.039341    0.5804377   0.53499135      2.15477 
   72000          144    600.50949   -679.73783    1528.7895     1530.027    647.97277   0.58633233    2.8807415    1.0814321   0.63501907   0.52121738    2.2376686 
   74000          148    607.48207    563.65007    1526.4864    1530.0248    648.04659   0.81425783    2.8807401    1.1025926   0.70637014   0.56475522    2.3737179 
   76000          152    685.10968    5107.1658    1528.1336    1530.0184    648.17386   0.24771647    2.8807364    1.1010551   0.66710617   0.55899026    2.3271515 
   78000          156    770.70268    1602.6062    1528.8242    1530.0623    648.84377  -0.13392828    2.8807639    1.1394521   0.68265201    0.6103628    2.4324669 
   80000          160     617.5179   -6292.2971    1538.1086    1530.0723    649.12251   -1.9673268    2.8807701    1.3150425   0.76269615   0.78836263    2.8661013 
   82000          164    681.47726   -688.81174    1525.5107    1530.0923    649.53912   -2.7708061    2.8807829    1.3733029   0.72782927    0.7711103    2.8722424 
   84000          168    687.27132    13342.815    1518.3723    1530.0962    649.71661   0.21533503    2.8807854    1.3864353   0.71166236    0.8184357    2.9165334 
   86000          172    615.57993   -14239.884    1547.4024    1530.1168     650.0003    1.9130599    2.8807982    1.4110937   0.76039706   0.79709378    2.9685846 
   88000          176    703.39809    23026.195    1508.4904    1530.0969    649.57539    1.3027794    2.8807858    1.3845878   0.72464503   0.85081468    2.9600475 
   90000          180    616.15626    4011.5219    1523.9656    1530.0875     649.2873  -0.95912758    2.8807798    1.4130783   0.78273811   0.85981988    3.0556363 
   92000          184    660.25109   -9411.0044    1535.3069    1530.0724    648.90773     1.399263    2.8807703    1.4183934   0.80934531   0.87324345    3.1009822 
   94000          188    637.21294    -8781.168    1537.0933    1530.0953     649.1992  0.097231159    2.8807848    1.4813161    0.7791521    1.0098191    3.2702873 
   96000          192     632.3613   -15477.323    1546.4329    1530.0998    649.46561  0.093842485    2.8807876    1.5603959   0.88370487    1.0497579    3.4938587 
   98000          196    695.69527    -9077.581    1538.8854    1530.1209    649.66432   -3.4072107    2.8808008    1.6287562   0.91931116    1.1616871    3.7097545 
[...]
   36000           72     972.1694    4142.0079    1540.3769    1548.3625    955.79579   0.80685337    2.8921979   0.66853903   0.68668499   0.59204455    1.9472686 
   38000           76    915.95614    5174.5261    1538.1091    1548.3619    955.56555   -15.774435    2.8921979   0.74091966   0.72244134   0.58801375    2.0513747 
   40000           80    956.24682   -624.80575    1549.1386    1548.2663    954.53015   0.77602379    2.8921385   0.67225252   0.75203299   0.68918926    2.1134748 
   42000           84    1106.3827    26306.412    1522.0375     1548.276    954.67742   -4.5579446    2.8921441   0.84630586   0.85640649   0.76177911    2.4644915 
   44000           88    1093.0627   -1915.2294    1555.3643     1548.265    954.80299    4.6736603    2.8921372    0.9880459   0.87112858   0.78624099    2.6454155 
   46000           92    959.77071   -9897.9283    1560.6835    1548.3707    956.10585    5.3279129    2.8922027   0.97410927   0.89006103   0.78746361    2.6516339 
   48000           96    878.65487   -960.97665    1547.8165    1548.3669    955.89863   -5.0919566    2.8922006   0.92643993   0.93474734   0.76034112    2.6215284 
   50000          100    1031.4646    4693.3358    1544.5014    1548.3476    955.52386   -7.4084748    2.8921886    1.0227042    1.0489328    1.0061605    3.0777975 
   52000          104    923.30438     7147.267    1537.7683    1548.2736    954.65276    2.4937899    2.8921422    1.0635413   0.99873888   0.98779951    3.0500797 
   54000          108    814.37313   -8459.8745    1553.6288    1548.1888    953.05334   -6.3343464    2.8920898    1.0068906    1.0259135   0.84460737    2.8774114 
   56000          112    1017.0339    16741.565    1535.6852    1548.1546    952.45896   -5.7960305     2.892068    1.0365398    1.1680081   0.96770484    3.1722528 
   58000          116    1003.6312   -8720.0752    1555.3692    1548.1529    952.33343    -1.435569    2.8920674    1.0324352    1.1963857   0.97255606    3.2013769 
   60000          120    1033.0326   -14779.671    1569.3883    1548.1525    952.29233   -1.2712458    2.8920668    1.1334972    1.1872287   0.99482074    3.3155467 
   62000          124    891.44897    6107.4797     1534.303    1548.1289    951.86721   -12.326021    2.8920521    1.1982038    1.2489191   0.93480347    3.3819263 
   64000          128    985.15676    2956.5663    1542.9809     1548.053    950.94404    -4.387592    2.8920048    1.2264565    1.1391954   0.96902055    3.3346725 
   66000          132    1006.8296    24291.632    1525.0063    1548.0026    950.33973  -0.51431855    2.8919734    1.1510146    1.0336256   0.91404287    3.0986831 
   68000          136    878.81493   -14605.976    1564.9095    1547.9926    949.92784    3.3443134    2.8919669    1.2174461    1.0743295    0.9795803    3.2713559 
   70000          140    875.92254   -137.36691    1541.7761    1547.9415    949.01213   -5.3139981    2.8919354    1.2348557    1.1408625    1.0087266    3.3844448 
   72000          144    848.97979    11632.173       1532.3    1547.8983    948.25877  -0.27451782    2.8919081    1.2610269    1.1737894    1.0400306    3.4748469 
   74000          148    903.72236   -5167.8954    1553.1517    1547.8753    947.72936    3.6313564    2.8918933    1.2771956    1.1691119    1.0201269    3.4664343 
   76000          152    1006.0161   -19857.453    1566.5963    1547.9077    948.02432   -2.1528568    2.8919136    1.4670172    1.1835189    1.1609855    3.8115217 
   78000          156    929.11867   -8814.9486    1568.8362    1547.9585    948.92778   -1.8130423    2.8919452    1.4606355    1.1591026    1.2563645    3.8761026 
   80000          160     881.3308   -7333.0629      1561.94    1548.0005    949.56345   0.42203696    2.8919713    1.6060354    1.2184035    1.3118293    4.1362682 
   82000          164    855.47086    19485.887    1521.4071    1548.0053    949.64194    -5.111312    2.8919743     1.808537    1.2938911    1.4316234    4.5340515 
   84000          168    972.22029    10066.419    1542.1086    1548.0128    949.92818  -0.66807816    2.8919789    1.8873405    1.4146731    1.4277609    4.7297744 
   86000          172    1020.1501    13112.304    1535.8834    1548.0731     950.7676     3.826732     2.892016    1.9048924    1.5070384    1.4572826    4.8692134 
   88000          176    945.72305    8428.4959    1534.7637    1548.0995    950.97601    1.1264528    2.8920325     1.909722    1.5748003      1.43565    4.9201723 
   90000          180    1035.1853    11492.671    1529.6475    1548.1429     951.6832    1.1110962    2.8920595     1.947527    1.6084418    1.4568672     5.012836 
   92000          184    1033.4592   -2269.1696    1545.4296    1548.1372     951.7667    3.7699719     2.892056     1.956072    1.6385453     1.477417    5.0720343 
   94000          188     1032.241   -8843.8724    1561.2268    1548.1622    952.14174    1.5260975    2.8920716    1.9768179    1.7071514    1.5148101    5.1987794 
   96000          192    928.66285    6126.9504    1538.5223    1548.1557    951.91962   -6.1848815    2.8920678      2.19554    1.6932708    1.6365034    5.5253142 
   98000          196    1008.4539    7077.4977    1540.3526    1548.1215    951.52367    1.7134247    2.8920465    2.2007856    1.7388855    1.6161528    5.5558238 
----FINISHED: 39/40 ---- T=950 -----
  100000          200    962.53373       8809.9    1541.3537    1548.1245    951.59328   0.99141096    2.8920484    2.3013027    1.8305034    1.6415414    5.7733475 
Loop time of 18.4316 on 4 procs for 100000 steps with 129 atoms

Performance: 937.520 ns/day, 0.026 hours/ns, 5425.462 timesteps/s
97.9% CPU use with 4 MPI tasks x 1 OpenMP threads

MPI task timing breakdown:
Section |  min time  |  avg time  |  max time  |%varavg| %total
---------------------------------------------------------------
Pair    | 8.5452     | 8.8892     | 9.2556     |   8.6 | 48.23
Neigh   | 0.031589   | 0.032724   | 0.033618   |   0.4 |  0.18
Comm    | 2.8263     | 3.1799     | 3.5099     |  13.8 | 17.25
Output  | 4.2047     | 4.2128     | 4.2281     |   0.4 | 22.86
Modify  | 1.828      | 1.8429     | 1.8617     |   0.9 | 10.00
Other   |            | 0.2741     |            |       |  1.49

Nlocal:    32.25 ave 33 max 32 min
Histogram: 3 0 0 0 0 0 0 0 0 1
Nghost:    861.75 ave 862 max 861 min
Histogram: 1 0 0 0 0 0 0 0 0 3
Neighs:    2231 ave 2448 max 2109 min
Histogram: 1 1 1 0 0 0 0 0 0 1

Total # of neighbors = 8924
Ave neighs/atom = 69.1783
Neighbor list builds = 464
Dangerous builds = 0
System init for write_data ...
Setting up Verlet run ...
  Unit style    : metal
  Current step  : 0
  Time step     : 0.002
Per MPI rank memory allocation (min/avg/max) = 66.79 | 66.79 | 66.79 Mbytes
Step Temp PotEng TotEng Press Volume Lx 
       0          950   -495.51767   -479.79963    8666.1951    1541.3537    11.551386 
    2000    1031.5369   -496.04479    -478.9777   -3708.5394    1553.4318     11.58148 
    4000    850.48807   -492.41901   -478.34743   -689.23763    1560.7977    11.599757 
    6000    989.72925   -495.39238   -479.01701    15955.101    1534.4959    11.534229 
    8000    1008.6194   -496.99608   -480.30817    7112.5379    1543.8459    11.557609 
   10000    1065.2959   -497.20997   -479.58434     3548.587    1546.9783     11.56542 
   12000    890.79142   -495.53133   -480.79292   -28289.336    1582.1478    11.652408 
   14000    946.92297   -497.36641   -481.69929   -2791.2436    1548.5685    11.569381 
   16000    1049.6614   -495.61264   -478.24568   -9294.5055      1565.87    11.612309 
   18000    1084.0916    -496.1752   -478.23858    -2645.132    1549.2888    11.571175 
   20000    911.79075   -497.59299   -482.50714    8227.0268    1537.1532    11.540883 
   22000    941.16332   -496.20122   -480.62939   -4537.9292    1555.7006    11.587116 
   24000     933.4232   -496.49736   -481.05359   -24633.391    1572.4686    11.628597 
   26000    948.55411   -494.95489   -479.26078    4236.7479    1548.4357    11.569051 
   28000    882.81123    -495.3968   -480.79042    8734.4344    1540.5456    11.549367 
   30000    917.66277   -496.22418   -481.04117    13583.855    1533.7189    11.532282 
   32000    880.36431   -498.13588   -483.56999   -9295.6477    1548.6535    11.569593 
   34000     973.3876   -497.33316   -481.22817   -15385.192    1564.8021    11.609668 
   36000    892.11436   -495.53803   -480.77774     9060.257    1539.0385      11.5456 
   38000    1023.0435   -495.61021   -478.68365   -5253.1051    1555.4521    11.586499 
   40000    1119.9042   -494.93346   -476.40431   -12873.251    1569.7261    11.621833 
   42000    921.96342   -496.91241   -481.65825   -17007.957    1568.0348    11.617657 
   44000    949.81572   -497.03426   -481.31927    11546.915    1539.6344     11.54709 
   46000    937.73944   -496.39392   -480.87874     12099.34    1534.9261    11.535307 
   48000    948.52653    -494.2819   -478.58824   -5905.2234     1558.652    11.594438 
   50000    1010.1153   -497.18052   -480.46786   -15489.039    1560.1936     11.59826 
Loop time of 8.72746 on 4 procs for 50000 steps with 129 atoms

Performance: 989.979 ns/day, 0.024 hours/ns, 5729.044 timesteps/s
97.8% CPU use with 4 MPI tasks x 1 OpenMP threads

MPI task timing breakdown:
Section |  min time  |  avg time  |  max time  |%varavg| %total
---------------------------------------------------------------
Pair    | 4.2328     | 4.3968     | 4.5681     |   5.8 | 50.38
Neigh   | 0.016553   | 0.017134   | 0.017629   |   0.3 |  0.20
Comm    | 1.4097     | 1.5766     | 1.7354     |   9.3 | 18.06
Output  | 2.0915     | 2.0955     | 2.1028     |   0.3 | 24.01
Modify  | 0.50556    | 0.51003    | 0.51637    |   0.6 |  5.84
Other   |            | 0.1314     |            |       |  1.51

Nlocal:    32.25 ave 33 max 32 min
Histogram: 3 0 0 0 0 0 0 0 0 1
Nghost:    856.5 ave 859 max 854 min
Histogram: 1 0 1 0 0 0 0 0 1 1
Neighs:    2213 ave 2298 max 2098 min
Histogram: 1 0 0 1 0 0 0 0 0 2

Total # of neighbors = 8852
Ave neighs/atom = 68.6202
Neighbor list builds = 244
Dangerous builds = 0
----STARTING----
Setting up Verlet run ...
  Unit style    : metal
  Current step  : 0
  Time step     : 0.002
Per MPI rank memory allocation (min/avg/max) = 68.41 | 68.41 | 68.41 Mbytes
Step v_my_time Temp Press Volume f_ave_vol f_ave_temp f_ave_press f_ave_latcon c_msdFe_40[1] c_msdFe_40[2] c_msdFe_40[3] c_msdFe_40[4] 
       0            0    1010.1153   -15489.039    1560.1936            0            0            0            0            0            0            0            0 
    2000            4    861.62053   -9060.5501    1561.1296    1546.7573    928.38966   -64.099808     2.891209   0.13124674   0.16601686   0.14394764   0.44121123 
    4000            8    963.54724    8039.5561    1542.8797    1546.9064    931.97114    2.6652119    2.8912818   0.14800171   0.24970365   0.18901569   0.58672106 
    6000           12    926.65916    12239.096    1530.8472    1547.2713    937.41948    111.56643    2.8915103   0.19259618   0.32163547   0.23706858   0.75130022 
    8000           16    1042.1907   -16179.002    1570.0955    1547.8109    944.75735    58.879124    2.8918485   0.25687361   0.37835879   0.31051531   0.94574771 
   10000           20      926.521    5660.4368    1542.0082    1548.1646    949.56587    21.930823    2.8920661   0.29351994     0.563813   0.34828537    1.2056183 
   12000           24      994.711     5733.235    1542.4507    1548.0928    949.09211    45.395861    2.8920205   0.36042761   0.66219981   0.53082277    1.5534502 
   14000           28    997.98362    14996.618    1532.3634    1547.6525    944.05781    52.158633    2.8917485    0.4340666   0.70668262   0.60725206    1.7480013 
   16000           32    925.70118   -7853.7669    1554.7173    1547.6179    942.96148    34.200254     2.891728   0.41017015   0.71860206   0.63356307    1.7623353 
   18000           36       959.45   -14930.847    1564.8054     1547.634    942.90262    10.735715    2.8917389   0.41634725   0.66645138   0.64043244    1.7232311 
   20000           40    986.03133    7064.9034    1543.5214    1547.7177    943.98765    18.942806     2.891792   0.43742941   0.71052184   0.61821115    1.7661624 
   22000           44    1008.6152    18082.985    1525.7865    1547.8241    946.08589    36.778483    2.8918573   0.47707848   0.72174295   0.66824259     1.867064 
   24000           48    906.94516   -7187.7311    1553.7175    1547.9169    947.05139    -12.38203    2.8919149    0.6386341   0.86567175   0.75418705    2.2584929 
   26000           52    1015.4508     16528.66    1539.2929    1548.0031    948.85272    17.782338    2.8919686   0.62903857   0.86801053   0.71962735    2.2166765 
   28000           56    1022.2401    6169.2395    1542.8515    1548.2019    951.98047    30.972868     2.892093   0.65467632   0.86961176   0.76086594     2.285154 
   30000           60    898.98392   -9973.0916    1553.8283    1548.2105    952.51457    25.973389    2.8920974   0.67008024   0.87705588   0.83718959    2.3843257 
   32000           64    957.29185   -7720.3772    1559.2132    1548.2213    952.57607    10.838022    2.8921036    0.7108417   0.92065978   0.90647887    2.5379804 
   34000           68    921.71197   -14206.944    1564.3565    1548.1874    952.10969    12.769427    2.8920833   0.72305635   0.92644888   0.96368412    2.6131894 
   36000           72    914.47013   -6288.7716     1549.394    1548.0649    950.23902    7.2020568    2.8920073    0.7224357   0.97810982    1.0014628    2.7020083 
   38000           76    833.06146    6663.8884    1533.6958    1547.9438    948.62416    14.109899    2.8919313   0.82997822     1.064623    1.0099812    2.9045824 
   40000           80    943.68664    5792.5695    1539.1786    1547.8784    947.72178    23.429069    2.8918905   0.85063479    1.0524883    1.0184393    2.9215624 
   42000           84    984.14253   -27738.315    1581.2169    1547.8098    946.76995    21.954954     2.891848   0.81679921     1.099078    1.1374634    3.0533406 
   44000           88    964.27987   -13244.922    1563.2604    1547.7823    946.03043    17.648995    2.8918304   0.89907362    1.1796875    1.1110943    3.1898553 
   46000           92     1059.441   -3973.8838    1547.2823    1547.8007    946.28273    16.620178    2.8918428   0.90460622    1.1209263    1.2056374    3.2311699 
   48000           96    960.19665   -13643.547     1565.776      1547.71    944.87245    6.9123386    2.8917867   0.99150056    1.1130311    1.1737119    3.2782436 
   50000          100    939.25318   -1201.2719    1549.7796    1547.7128    944.78633    10.587788    2.8917878   0.98161164    1.1743626    1.1736887    3.3296629 
   52000          104    886.97549    14548.693    1531.5055    1547.6545    943.91402    5.1461129    2.8917518    1.0798587     1.200236    1.1390303    3.4191251 
   54000          108    973.95125    1562.3271    1542.3703    1547.7014      944.633    15.131505    2.8917813    1.0626477    1.1748433     1.147629      3.38512 
   56000          112    955.97048    486.03833    1540.7471    1547.7535    945.52945    13.190594    2.8918144    1.1037527    1.2412393    1.2705114    3.6155035 
   58000          116     852.6468   -12498.237     1560.191    1547.7489    945.39069    16.504843    2.8918116    1.2405302    1.3815954    1.4016782    4.0238038 
   60000          120    961.77949    23.334051     1550.512    1547.7324     945.0531    6.7173755    2.8918019     1.228026    1.4186347    1.5440136    4.1906743 
   62000          124    889.57209     6209.629    1541.2899    1547.6986    944.43951    2.7397017    2.8917809     1.271001    1.5251765    1.5541342    4.3503118 
   64000          128    936.36096   -16403.843    1561.7039    1547.6859    944.37718    11.462043    2.8917734    1.3641498    1.4309196    1.6228799    4.4179493 
   66000          132    943.89638   -4883.2069    1552.9841    1547.6901    944.17786    7.0842485     2.891776    1.2929768    1.4385569    1.6846597    4.4161934 
   68000          136     955.2554    -18315.84    1567.9203    1547.6549     943.6432   -4.4516114    2.8917544    1.4065995    1.4662336    1.7228502    4.5956833 
   70000          140    913.62839    7227.5778    1535.2559    1547.6464    943.45987    5.6430993    2.8917484    1.4561399    1.5112931    1.6929649    4.6603978 
   72000          144    885.35581   -13930.457    1561.6536    1547.5994    942.66913    7.0357598    2.8917195    1.5307224    1.4733479      1.75616    4.7602303 
   74000          148    926.37148    -1791.614    1540.9546    1547.5881    942.40852    4.7344895    2.8917128    1.5963276    1.4825021    1.7751602    4.8539899 
   76000          152     901.2793    5861.4384    1539.5723    1547.5343     941.7639    5.2900034    2.8916798    1.5578028    1.4843309    1.9152051    4.9573389 
   78000          156    982.02922   -19553.489    1573.5035    1547.5171     941.4567  -0.65819772    2.8916693     1.764209    1.5495939       1.9964    5.3102029 
   80000          160    1080.4948   -10816.666    1559.0703    1547.5064    941.30144   -1.2617744    2.8916627    1.7676069     1.593767    1.9926472    5.3540211 
   82000          164     1006.447   -962.99772    1555.7644    1547.5746       942.38   -3.0017354    2.8917055    1.8327335    1.5526559     2.137458    5.5228474 
   84000          168     1024.374    18575.403    1529.4691    1547.5889    942.57508   0.86032774    2.8917144    1.8908929    1.6364538    2.1666624    5.6940091 
   86000          172    1038.4676    3550.0386    1541.8109    1547.6033    942.83293    3.3208427     2.891723    2.0045364    1.6339215    2.2918429    5.9303008 
   88000          176    967.23094    713.16896    1552.5595    1547.5868    942.66257     6.106878    2.8917123     2.052107    1.8517768     2.465135    6.3690188 
   90000          180    998.47154   -12643.111    1564.7858    1547.5773    942.38849     4.003857    2.8917063    2.0864667    1.9144765    2.6129054    6.6138485 
   92000          184    875.54097   -2276.2452    1548.4169    1547.5706    942.40553    3.0289848    2.8917025    2.0400728    1.9894628    2.5327043      6.56224 
   94000          188    942.53854   -8064.3212    1552.8966    1547.5652    942.29409    3.2399469    2.8916991    2.0835074    2.0243248    2.6669671    6.7747993 
   96000          192    940.38237   -7725.4354    1553.6871    1547.5663    942.48208   0.88652768    2.8917002    2.0896283    1.9820838    2.6902723    6.7619844 
   98000          196    1012.3717   -15151.461    1570.1161    1547.5887    942.71766   -1.7680212    2.8917139    2.1129582    2.1394864    2.7332376    6.9856822 
----FINISHED: 40/40 ---- T=950 -----
  100000          200    884.96139    10346.687    1537.0172    1547.6218    943.28698    1.3800159    2.8917345    2.1558384    2.0034077     2.744756     6.904002 
Loop time of 18.4988 on 4 procs for 100000 steps with 129 atoms

Performance: 934.114 ns/day, 0.026 hours/ns, 5405.750 timesteps/s
97.9% CPU use with 4 MPI tasks x 1 OpenMP threads

MPI task timing breakdown:
Section |  min time  |  avg time  |  max time  |%varavg| %total
---------------------------------------------------------------
Pair    | 8.5501     | 8.8751     | 9.2185     |   8.0 | 47.98
Neigh   | 0.032437   | 0.033438   | 0.03433    |   0.4 |  0.18
Comm    | 2.8537     | 3.1884     | 3.5035     |  12.9 | 17.24
Output  | 4.2837     | 4.2916     | 4.3063     |   0.4 | 23.20
Modify  | 1.8257     | 1.8369     | 1.851      |   0.7 |  9.93
Other   |            | 0.2734     |            |       |  1.48

Nlocal:    32.25 ave 33 max 32 min
Histogram: 3 0 0 0 0 0 0 0 0 1
Nghost:    861.75 ave 864 max 859 min
Histogram: 1 0 1 0 0 0 0 0 0 2
Neighs:    2245.25 ave 2375 max 2121 min
Histogram: 1 0 1 0 0 0 0 1 0 1

Total # of neighbors = 8981
Ave neighs/atom = 69.6202
Neighbor list builds = 475
Dangerous builds = 0
System init for write_data ...
Total wall time: 0:16:29
