LAMMPS (7 Aug 2019)
OMP_NUM_THREADS environment is not set. Defaulting to 1 thread. (../comm.cpp:93)
  using 1 OpenMP thread(s) per MPI task
Reading data file ...
  orthogonal box = (0 0 0) to (11.4212 11.4212 11.4212)
  1 by 1 by 2 MPI processor grid
  reading atoms ...
  129 atoms
  reading velocities ...
  129 velocities
  read_data CPU = 0.00102496 secs
129 atoms in group iron
129 atoms in group Fe
Neighbor list info ...
  update every 1 steps, delay 10 steps, check yes
  max neighbors/atom: 2000, page size: 100000
  master list distance cutoff = 7.3
  ghost atom cutoff = 7.3
  binsize = 3.65, bins = 4 4 4
  1 neighbor lists, perpetual/occasional/extra = 1 0 0
  (1) pair eam/fs, perpetual
      attributes: half, newton on
      pair build: half/bin/atomonly/newton
      stencil: half/bin/3d/newton
      bin: standard
Setting up Verlet run ...
  Unit style    : metal
  Current step  : 0
  Time step     : 0.002
Per MPI rank memory allocation (min/avg/max) = 2.988 | 2.988 | 2.988 Mbytes
Step Temp PotEng TotEng Press Volume Lx 
       0          600   -513.59825   -503.67107    20744.569    1489.8248      11.4212 
    2000    548.26367   -502.99007   -493.91889    7813.7613    1520.0312    11.497873 
    4000    614.40348   -504.65934   -494.49385    4154.7896    1522.1937    11.503323 
    6000    571.28037   -502.87946   -493.42746   -6535.5758    1533.3499    11.531357 
    8000    555.96478   -501.93026   -492.73165   -1595.0019    1532.5468    11.529343 
   10000    618.74688   -503.87793   -493.64058   -5337.2359    1532.1131    11.528256 
   12000    591.07381   -503.45587   -493.67637    6866.9223    1519.8794     11.49749 
   14000    631.21009   -502.35484   -491.91128    8438.2268    1522.4273    11.503911 
   16000    594.85241   -504.74605   -494.90404     1765.064    1521.9287    11.502655 
   18000     632.8714   -504.13762   -493.66657    3589.1005    1521.9001    11.502583 
   20000    609.07302   -503.24482   -493.16753   -7801.9511     1535.965    11.537909 
   22000      536.314   -502.55947   -493.68599   -2360.7569    1532.1635    11.528382 
   24000    531.94089   -503.32343   -494.52231   -18278.345     1546.461    11.564131 
   26000    585.29701   -503.30467   -493.62076   -11252.569    1539.1134    11.545787 
   28000    635.20656   -502.49831   -491.98863    -19098.45     1549.977    11.572888 
   30000    565.72516   -502.51747   -493.15738   -12463.846    1540.7787     11.54995 
   32000    578.33316   -502.97982   -493.41113    1193.3501    1528.0257    11.517995 
   34000    583.47266   -503.89402   -494.24029   -13657.034    1539.3121    11.546284 
   36000    593.26095   -502.60594   -492.79026   -6008.2404    1535.2182    11.536039 
   38000    594.43788   -504.08768   -494.25253    3897.8716    1522.0372    11.502929 
   40000    518.25798   -503.77438   -495.19964    15334.479    1509.0812    11.470197 
   42000    565.74479   -504.18594   -494.82552   -8165.7133    1531.3377    11.526311 
   44000    643.05258   -503.55083   -492.91133   -9598.2528     1536.296    11.538738 
   46000    692.97784   -504.08266   -492.61713   -3484.9853    1530.1903    11.523431 
   48000    624.61943   -503.49734   -493.16282   -5294.0273    1534.8301    11.535067 
   50000    592.82754   -504.61676   -494.80825   -660.58028    1524.4273    11.508947 
Loop time of 9.93812 on 2 procs for 50000 steps with 129 atoms

Performance: 869.379 ns/day, 0.028 hours/ns, 5031.130 timesteps/s
99.0% CPU use with 2 MPI tasks x 1 OpenMP threads

MPI task timing breakdown:
Section |  min time  |  avg time  |  max time  |%varavg| %total
---------------------------------------------------------------
Pair    | 7.5734     | 7.8643     | 8.1553     |  10.4 | 79.13
Neigh   | 0.004935   | 0.004992   | 0.005049   |   0.1 |  0.05
Comm    | 1.1945     | 1.4874     | 1.7804     |  24.0 | 14.97
Output  | 0.00026441 | 0.00033617 | 0.00040793 |   0.0 |  0.00
Modify  | 0.45259    | 0.4549     | 0.45721    |   0.3 |  4.58
Other   |            | 0.1261     |            |       |  1.27

Nlocal:    64.5 ave 65 max 64 min
Histogram: 1 0 0 0 0 0 0 0 0 1
Nghost:    1173 ave 1181 max 1165 min
Histogram: 1 0 0 0 0 0 0 0 0 1
Neighs:    4487.5 ave 4855 max 4120 min
Histogram: 1 0 0 0 0 0 0 0 0 1

Total # of neighbors = 8975
Ave neighs/atom = 69.5736
Neighbor list builds = 38
Dangerous builds = 0
----STARTING----
Setting up Verlet run ...
  Unit style    : metal
  Current step  : 0
  Time step     : 0.002
Per MPI rank memory allocation (min/avg/max) = 4.864 | 4.927 | 4.989 Mbytes
Step v_my_time Temp Press Volume f_ave_vol f_ave_temp f_ave_press f_ave_latcon c_msdFe_1[1] c_msdFe_1[2] c_msdFe_1[3] c_msdFe_1[4] 
       0            0    592.82754   -660.58028    1524.4273            0            0            0            0 9.4329511e-33 9.3329221e-33 1.3474045e-34 1.8900614e-32 
    2000            4    546.96922     16672.94    1510.4068    1526.3509    576.67135   -73.946078    2.8784361  0.024460257  0.021133317  0.033456473  0.079050046 
    4000            8    560.88125    6860.3209    1522.1573    1526.8704    588.38929   -53.780733    2.8787611   0.02992791  0.028445647  0.030739298  0.089112855 
    6000           12     569.7588   -6383.3323    1534.0823    1527.2452    597.29017   -52.039232    2.8789958  0.024793522  0.025200975  0.027906227  0.077900724 
    8000           16    617.13363   -10116.046    1537.1372    1527.4524    600.00387   -13.036845     2.879125  0.023603277  0.025275092  0.038419625  0.087297994 
   10000           20    600.81658    12743.686    1515.9041    1527.5632    599.17226     -18.3695    2.8791962   0.03391535  0.042796681  0.086484112   0.16319614 
   12000           24    646.11939    11813.752    1518.1957    1527.5354    597.61159   -22.795607    2.8791787  0.038861967  0.057446371  0.094430346   0.19073868 
   14000           28    564.01412    976.26595    1524.4137    1527.5807    597.36848   -49.421768     2.879207  0.044074762  0.048876515  0.086271036   0.17922231 
   16000           32    569.94505    875.36935    1526.2802    1527.5426    597.67648   -23.989274    2.8791829  0.046921888  0.061833223   0.11164041   0.22039552 
   18000           36    537.39684   -4169.3783    1528.9938    1527.6012     598.6125   -35.752658      2.87922  0.045753795  0.045067949   0.10413605    0.1949578 
   20000           40    607.94839   -9616.8821    1540.1263    1527.5261    598.90408   -7.9716027    2.8791722  0.049563774  0.067409909   0.12161298   0.23858666 
   22000           44    695.15862   -3151.3654    1530.8745    1527.6423     601.1798   -4.6979081    2.8792443  0.055260959  0.049272031   0.13220447   0.23673746 
   24000           48    629.73597   -4039.4696    1529.6454    1527.7122    602.04697    3.4445177     2.879289  0.056050164  0.047111043   0.14549652   0.24865772 
   26000           52    631.58548    1533.7747    1524.6659    1527.8139    603.89787  -0.26016292    2.8793526  0.060190009  0.062802937   0.13085806   0.25385101 
   28000           56    611.68228   -6290.7338    1532.2404    1527.7826    603.73924    -12.82583    2.8793337  0.079470095  0.078043542   0.17989704   0.33741067 
   30000           60    636.62063   -8774.7165    1532.4717    1527.8355    604.56632   -13.909856    2.8793674  0.097253961   0.10549617   0.20394864   0.40669878 
   32000           64    600.69456    -2710.538    1532.1474    1527.8583    604.66939   -18.994187    2.8793818   0.11400174  0.096454252   0.18418011    0.3946361 
   34000           68    705.94349   -10409.967     1539.522    1527.8848     605.7254   -10.849096    2.8793977   0.16428804  0.093143527   0.17991962   0.43735119 
   36000           72    648.34036   -10818.438    1541.0948    1527.8812    606.14165   -1.6318996    2.8793957   0.16833762  0.080349603   0.17681981   0.42550703 
   38000           76    523.98248   -8748.6806    1533.4666    1527.8649    605.62266    -7.515766    2.8793853   0.18408917  0.099639445   0.19723781   0.48096643 
   40000           80     603.9965     242.4392    1528.8493    1527.8647    605.63553   -5.6784641    2.8793852   0.24584268   0.10477201   0.26109028   0.61170497 
   42000           84    592.40713     13496.54    1516.1029    1527.8647    606.41091   -7.0448431    2.8793856    0.2387576   0.18215919    0.3057441    0.7266609 
   44000           88    527.56457   -4001.4539    1528.9637    1527.8293    606.15157   -10.351728    2.8793632   0.27970162   0.19035587   0.34196398   0.81202147 
   46000           92    598.01292   -22355.174    1548.6416    1527.7698    604.99283    -4.813522    2.8793258   0.27237399   0.21477621   0.32296659   0.81011679 
   48000           96    605.90808    5582.5586    1520.1512    1527.7381    604.25715  -0.10651637    2.8793053   0.23239927   0.19801803   0.30906103   0.73947833 
   50000          100    565.17605    6978.6923    1519.8691    1527.7172    603.79749  -0.22588521    2.8792919   0.26144491   0.25130359   0.32505245   0.83780096 
   52000          104    573.04489    10242.792    1515.3319    1527.6778    603.03487   -1.2505568     2.879267   0.33757748   0.25192688   0.35298808   0.94249244 
   54000          108    611.78862    8761.5732    1521.9967    1527.6462    602.65147  -0.95691451    2.8792474   0.30464806   0.24457721   0.34927632   0.89850159 
   56000          112    635.42929   -500.98604    1526.1319    1527.6367    602.71381   -5.1106704    2.8792416   0.33480735   0.25984798   0.33766355   0.93231889 
   58000          116    556.48908    26.147801    1524.9285    1527.6181    602.46046   -6.9935948    2.8792302    0.3278104    0.2494464    0.3506693   0.92792611 
   60000          120    552.07333   -5393.4895    1532.4569    1527.5968    601.84918   -5.8524258    2.8792168   0.28200409   0.23313824   0.33211214   0.84725447 
   62000          124    617.12203   -11278.633    1537.0879    1527.5675    601.15194   -6.5477666    2.8791987    0.2931664   0.25402868   0.32171964   0.86891472 
   64000          128    605.82369   -12038.078    1540.2307    1527.5669    601.11449   -4.9677903     2.879198   0.26944642   0.25763503   0.34704832   0.87412977 
   66000          132    588.88734   -9461.7177    1536.3415    1527.5293    600.43107   -5.4169585    2.8791744   0.32100798   0.32072361   0.35648566   0.99821725 
   68000          136    626.22308   -10188.502    1537.1217    1527.5162    600.39414  -0.68174417    2.8791665   0.29482843   0.31072403   0.34278761   0.94834006 
   70000          140    507.50933    6029.8052    1523.6493    1527.5178    600.04433   -2.5507177    2.8791675   0.33060887   0.32252449   0.33915683   0.99229018 
   72000          144    582.26194    1892.0411    1524.7168    1527.5254    599.90486   -7.4618025    2.8791724   0.33387631   0.30902716   0.33523402   0.97813749 
   74000          148    661.79497    6925.8701    1520.5523    1527.5331    600.13168   -6.0472887    2.8791774   0.33284324   0.37026047   0.34413904    1.0472428 
   76000          152    616.61496    672.52534    1524.0983      1527.53    600.00746   -6.2825309    2.8791754   0.35755447   0.40734217   0.34729582    1.1121925 
   78000          156    542.68562    14222.603    1512.7775    1527.5028    599.49673   -5.6894261    2.8791586   0.34839716   0.42861461   0.35909586    1.1361076 
   80000          160    566.00093    -1261.097    1524.9345    1527.4638    599.04617   -6.7768905     2.879134   0.35091416     0.443256    0.3565825    1.1507527 
   82000          164    607.21607   -3374.8919    1529.3846     1527.442    598.87317   -11.056618    2.8791203   0.39417296   0.43011525   0.39681363    1.2211018 
   84000          168    682.79122    4865.5988    1521.2843     1527.427    598.82816   -6.8396859     2.879111   0.40206722   0.41117266   0.39229226    1.2055321 
   86000          172    687.73631     6740.964    1521.8477    1527.4462    599.18854   -2.4857893     2.879123   0.39154872   0.42249147    0.4051736    1.2192138 
   88000          176    650.86198    11888.188      1515.38    1527.4716    599.63753   -6.3570545    2.8791391   0.41262563   0.45937734    0.4311207    1.3031237 
   90000          180    586.63139    2739.1694    1522.7917    1527.4796    599.64459   -7.7915797    2.8791442   0.42674327   0.42951826   0.41932138    1.2755829 
   92000          184    596.54024   -8790.2485    1537.9837    1527.4575    599.34975   -7.5852812    2.8791305   0.45723756   0.47702273   0.40880985    1.3430701 
   94000          188    626.11945    -9588.569    1538.0152     1527.442    598.94174   -8.0150367    2.8791208   0.45291396   0.47355182   0.45575502    1.3822208 
   96000          192     615.8474   -179.23339    1529.6726    1527.4444    598.81825   -7.4598838    2.8791223    0.4459132   0.51192395   0.51241224    1.4702494 
   98000          196    513.98982     3362.474    1523.4946     1527.422    598.65915   -3.2353951    2.8791083   0.47377204    0.4597067   0.54169273    1.4751715 
----FINISHED: 1/7 ---- T=600 -----
  100000          200    537.90603    15831.839    1510.6623    1527.4119    598.22406   -6.2104719    2.8791018   0.49731989   0.47548407   0.51325392    1.4860579 
Loop time of 20.6064 on 2 procs for 100000 steps with 129 atoms

Performance: 838.574 ns/day, 0.029 hours/ns, 4852.859 timesteps/s
98.9% CPU use with 2 MPI tasks x 1 OpenMP threads

MPI task timing breakdown:
Section |  min time  |  avg time  |  max time  |%varavg| %total
---------------------------------------------------------------
Pair    | 15.035     | 15.642     | 16.248     |  15.3 | 75.91
Neigh   | 0.010566   | 0.011109   | 0.011652   |   0.5 |  0.05
Comm    | 2.3217     | 2.932      | 3.5423     |  35.6 | 14.23
Output  | 0.15007    | 0.1612     | 0.17234    |   2.8 |  0.78
Modify  | 1.585      | 1.6007     | 1.6165     |   1.2 |  7.77
Other   |            | 0.2598     |            |       |  1.26

Nlocal:    64.5 ave 67 max 62 min
Histogram: 1 0 0 0 0 0 0 0 0 1
Nghost:    1215.5 ave 1221 max 1210 min
Histogram: 1 0 0 0 0 0 0 0 0 1
Neighs:    4539.5 ave 5007 max 4072 min
Histogram: 1 0 0 0 0 0 0 0 0 1

Total # of neighbors = 9079
Ave neighs/atom = 70.3798
Neighbor list builds = 89
Dangerous builds = 0
System init for write_data ...
Setting up Verlet run ...
  Unit style    : metal
  Current step  : 100000
  Time step     : 0.002
Per MPI rank memory allocation (min/avg/max) = 4.989 | 4.989 | 4.989 Mbytes
Step Temp PotEng TotEng Press Volume Lx 
  100000          700   -504.05727   -492.47556    17728.079    1510.6623    11.474201 
  102000    699.16009    -502.0234   -490.45558   -8925.7019    1540.4528    11.549135 
  104000     741.9767   -500.99505   -488.71883     -1191.18    1536.9117    11.540279 
  106000    732.09556   -502.82118   -490.70844   -10092.708    1540.0678    11.548173 
  108000    700.57985   -500.49052   -488.89922    8315.1995    1526.5274    11.514229 
  110000    691.25853   -498.42087   -486.98379   -26539.012    1569.5444    11.621384 
  112000    757.63642   -502.91201   -490.37669    7092.8737    1520.0758    11.497985 
  114000    682.49165    -502.2455   -490.95347   -4850.4826    1536.5646     11.53941 
  116000    721.25265   -500.99981   -489.06647    18325.147    1514.9506    11.485048 
  118000    755.90052   -501.40517   -488.89857    4426.7167    1527.5984    11.516921 
  120000    682.79848   -502.15285   -490.85574   -4215.7161     1534.768    11.534911 
  122000     718.6462    -502.4353   -490.54509    11808.237    1517.5851    11.491702 
  124000    739.52161   -501.49831    -489.2627    2169.8231    1530.2374    11.523549 
  126000    777.21112    -501.5835   -488.72431    9383.7765    1521.8069    11.502348 
  128000    778.76104   -501.07734    -488.1925    -9058.458    1545.3204    11.561287 
  130000    758.09607   -502.34258   -489.79966    22608.507    1509.1226    11.470302 
  132000     636.7627   -502.37959   -491.84416   -1135.6797    1532.4015    11.528979 
  134000    712.48302   -502.67584   -490.88759    16173.679    1513.5129    11.481414 
  136000    641.61776   -499.84803   -489.23227   -7609.5657    1543.2908    11.556223 
  138000     702.7875    -501.1269   -489.49907    6081.7278    1529.4551    11.521585 
  140000    645.32404   -501.77028    -491.0932   -2557.4917    1534.5154    11.534278 
  142000    763.34142    -499.7489   -487.11919   -20870.777      1558.34    11.593665 
  144000    695.78659   -500.85365   -489.34165   -5939.4025    1538.8491    11.545126 
  146000    700.31183   -500.88989   -489.30302    9145.3983    1521.5058     11.50159 
  148000    719.94133    -502.5728   -490.66116   -53.834878    1526.4348    11.513996 
  150000    677.80211   -501.54052   -490.32608   -9418.3199    1537.2462    11.541116 
Loop time of 9.93007 on 2 procs for 50000 steps with 129 atoms

Performance: 870.085 ns/day, 0.028 hours/ns, 5035.213 timesteps/s
98.9% CPU use with 2 MPI tasks x 1 OpenMP threads

MPI task timing breakdown:
Section |  min time  |  avg time  |  max time  |%varavg| %total
---------------------------------------------------------------
Pair    | 7.4949     | 7.8037     | 8.1125     |  11.1 | 78.59
Neigh   | 0.012027   | 0.012521   | 0.013016   |   0.4 |  0.13
Comm    | 1.1409     | 1.4526     | 1.7643     |  25.9 | 14.63
Output  | 0.075017   | 0.080489   | 0.085962   |   1.9 |  0.81
Modify  | 0.44896    | 0.45713    | 0.4653     |   1.2 |  4.60
Other   |            | 0.1236     |            |       |  1.24

Nlocal:    64.5 ave 65 max 64 min
Histogram: 1 0 0 0 0 0 0 0 0 1
Nghost:    1185.5 ave 1186 max 1185 min
Histogram: 1 0 0 0 0 0 0 0 0 1
Neighs:    4530 ave 4819 max 4241 min
Histogram: 1 0 0 0 0 0 0 0 0 1

Total # of neighbors = 9060
Ave neighs/atom = 70.2326
Neighbor list builds = 101
Dangerous builds = 0
----STARTING----
Setting up Verlet run ...
  Unit style    : metal
  Current step  : 0
  Time step     : 0.002
Per MPI rank memory allocation (min/avg/max) = 6.617 | 6.617 | 6.617 Mbytes
Step v_my_time Temp Press Volume f_ave_vol f_ave_temp f_ave_press f_ave_latcon c_msdFe_2[1] c_msdFe_2[2] c_msdFe_2[3] c_msdFe_2[4] 
       0            0    677.80211   -9418.3199    1537.2462            0            0            0            0 2.3887503e-33 6.7482197e-34 5.9718758e-34 3.6607599e-33 
    2000            4     744.4719    13893.682    1519.9448    1533.0487    707.59257   -36.088433    2.8826458  0.084920602  0.070540893  0.042176404    0.1976379 
    4000            8    670.08163    190.68091    1529.5377    1533.0138    706.07252   -91.819498    2.8826175   0.11099328  0.056249005  0.043653919    0.2108962 
    6000           12    687.40039    -1956.091    1531.4339    1532.3547    696.33604    21.687858    2.8822044   0.16302532  0.067471933  0.042010785   0.27250804 
    8000           16    700.43927   -18197.469    1555.0927    1532.2793    692.25215   -34.660172    2.8821546   0.25089812   0.13955409   0.12102694   0.51147915 
   10000           20    704.10172    22517.214    1508.9236    1532.1947    693.74974    -41.65913    2.8821016   0.32760796   0.14448838   0.15776154   0.62985787 
   12000           24    631.20583   -13490.279    1547.0563    1532.3219    695.49404   -22.102217    2.8821806   0.35768377   0.17684053   0.21715105   0.75167535 
   14000           28    676.73211    5361.4108     1530.599    1532.5256    697.87791   -12.495876     2.882308   0.36821571   0.16695016   0.24890043    0.7840663 
   16000           32    796.79151   -11574.352    1551.5272    1532.7083    700.32098    7.8891373    2.8824218   0.38711226   0.17613373   0.27868315   0.84192914 
   18000           36    784.79099    9475.2192    1522.4938    1532.8617    702.75391   -10.705672    2.8825185    0.3833158   0.17325793   0.26618059   0.82275431 
   20000           40    758.07794   -5366.0272    1539.4931    1532.9778    704.73148    -12.35519    2.8825908    0.3893964   0.22060527   0.28190791   0.89190959 
   22000           44    682.20933    15216.395    1518.5214     1532.994    705.00294    6.9226714    2.8826006   0.38396137   0.22331505    0.2830074   0.89028381 
   24000           48    777.23505    1513.1415    1528.3343    1532.9557    704.25891   -7.5524264    2.8825768   0.48315707   0.26376263   0.32846697    1.0753867 
   26000           52    705.81895   -8065.6752    1538.3771    1533.0212    704.30565     5.760996    2.8826179   0.49523379   0.27396699   0.32261849    1.0918193 
   28000           56    751.79736    -1470.276    1535.1837    1532.9483     703.0464   -1.1596651     2.882573   0.55401945   0.28661563   0.33648112    1.1771162 
   30000           60    703.87286   -2028.9255    1535.6576    1532.9003    702.48507    4.4401172    2.8825427   0.54823439   0.29697366   0.33843978    1.1836478 
   32000           64    647.98229     9925.894    1526.6163       1532.8    701.08104     6.001913    2.8824801   0.57153157   0.31237356   0.36671799    1.2506231 
   34000           68    661.25906    6745.5793    1525.4047    1532.7999    700.92174   -9.4680017    2.8824801   0.61683556   0.37746191    0.4211269    1.4154244 
   36000           72     662.2204   -9042.6474    1541.6337    1532.8321    701.65587   -1.1317074    2.8824997   0.62570152   0.36878017   0.46349561    1.4579773 
   38000           76    791.95985    1873.4611    1530.2093    1532.8672    702.29665   -12.115711    2.8825221   0.60102759    0.3706423   0.46477616     1.436446 
   40000           80    721.09555   -9101.6358    1545.3223    1532.8758    702.45408   -8.9249327    2.8825275   0.60425123   0.41331048   0.45947718    1.4770389 
   42000           84    648.24213     -4013.87    1532.9839    1532.8523    702.72518   0.70571565    2.8825125   0.59075931   0.45720597   0.47401203    1.5219773 
   44000           88    577.83645    15127.875    1514.5377    1532.8148    701.66088   -3.6374392    2.8824888   0.62131848   0.47506723    0.4927804    1.5891661 
   46000           92     746.6571   -9779.9386    1541.9829    1532.7334    700.62654   -2.7548546     2.882438   0.60547697   0.47366416   0.48976935    1.5689105 
   48000           96    672.29821    13643.257    1520.5404     1532.708    700.38722    3.8543541    2.8824219   0.67371604    0.5619409   0.53927584    1.7749328 
   50000          100     712.4807    17410.968    1513.0883    1532.7326     700.2271   -4.5283327    2.8824376   0.67760678   0.54550841    0.5285301    1.7516453 
   52000          104    761.76329    2938.8044    1533.2082    1532.7834    701.01002    -1.526122    2.8824695   0.69729924   0.55502555   0.53882859    1.7911534 
   54000          108    681.02558    9303.2265    1527.3681    1532.8179    701.98963   -3.3799551    2.8824916   0.73541062   0.55763435     0.556324     1.849369 
   56000          112    599.01309   -2716.8613    1536.6871    1532.8238    702.37314   0.34428121    2.8824955   0.72091719   0.58649467   0.57917856    1.8865904 
   58000          116    727.93426    3268.0443    1534.4352     1532.829     702.2134   -3.4016421    2.8824985   0.74700089   0.59202419   0.62636244    1.9653875 
   60000          120    680.79065   -3546.4655    1537.5898    1532.8038    701.85126   -10.008123    2.8824828    0.7588132   0.64390429   0.68264785    2.0853653 
   62000          124    654.89507    -1694.264    1531.0428    1532.7625    701.00312   -6.0907038    2.8824571   0.68634157    0.6220648    0.6515636      1.95997 
   64000          128    670.41351   -3246.0449    1536.6043    1532.7364    700.14569   0.75679152    2.8824404   0.73217414   0.68350442   0.69153043     2.107209 
   66000          132    737.84049    9142.5474    1523.0526    1532.7233    700.08065    -5.643658    2.8824319   0.81223674   0.72502534   0.82615621    2.3634183 
   68000          136    674.51699   -5701.0183     1535.092    1532.7098    700.19651   -3.5661442    2.8824237   0.77645197   0.73937174   0.74642825     2.262252 
   70000          140    758.40561     15076.57    1518.2465    1532.7114    700.47424    2.8700371    2.8824247   0.71865909   0.72502442   0.80862743    2.2523109 
   72000          144    757.38378   -19503.091    1556.0552    1532.7688    701.33452   -0.9373577    2.8824606   0.77051342   0.74618836   0.83176423     2.348466 
   74000          148    620.94965    16875.425    1514.3254    1532.7911    701.56431   -3.6114664    2.8824744   0.70548711   0.75884328   0.83185005    2.2961804 
   76000          152    722.35133    -3703.649    1539.3772    1532.7988    701.63492   -2.9801226    2.8824794   0.80023571    0.8426946    0.9146898    2.5576201 
   78000          156    760.34663    5482.1688    1531.7119    1532.8337    701.85813   -2.2929475    2.8825015   0.89975922   0.88436068    1.0908802    2.8750001 
   80000          160    712.49799     9021.008    1528.1744    1532.8742    702.60999   -4.8057665    2.8825271   0.88613492   0.85855584    1.1045606    2.8492513 
   82000          164    709.11316   -13121.569    1545.9239     1532.885    703.11022     -3.39067    2.8825338   0.99230896   0.96550087    1.1230329    3.0808427 
   84000          168    733.67807     6233.295    1524.2644    1532.9134    703.34815  -0.45477434    2.8825512   0.99362191    0.9221937    1.1591578    3.0749734 
   86000          172    700.32117   -4150.9579    1536.1875    1532.9333    703.46574    -3.939737    2.8825637   0.95671315   0.99914311    1.1238086    3.0796648 
   88000          176    675.93798   -13852.102    1549.0426    1532.9383    703.68227   -3.0083721    2.8825667    1.0024813    1.0532195    1.1627081    3.2184089 
   90000          180    666.65967    13498.779    1514.6587    1532.9143    703.16191    1.2712368    2.8825517    1.0056538    1.0397011    1.1433367    3.1886916 
   92000          184    721.88063    504.26278    1530.5986    1532.8766    702.70327   -2.3770141    2.8825282    1.0443157    1.1288687    1.1857449    3.3589293 
   94000          188     720.1206   -10049.592    1548.1801    1532.8616    702.60025  -0.97903089     2.882519    1.1064788    1.1563686    1.2381722    3.5010196 
   96000          192    763.16681   -1479.9949     1535.901    1532.8349    702.08414   -3.5861133    2.8825022    1.1312843    1.1361485    1.2136462    3.4810789 
   98000          196    675.03292    10337.302    1520.7059    1532.8129    701.78041   -1.5207069    2.8824884    1.1435459    1.1767303    1.4201541    3.7404302 
----FINISHED: 2/7 ---- T=700 -----
  100000          200    656.43821    6205.2134    1523.7692    1532.7896    701.22197   -3.9341787     2.882474    1.1767762    1.2045547    1.4861061     3.867437 
Loop time of 20.7475 on 2 procs for 100000 steps with 129 atoms

Performance: 832.872 ns/day, 0.029 hours/ns, 4819.861 timesteps/s
98.9% CPU use with 2 MPI tasks x 1 OpenMP threads

MPI task timing breakdown:
Section |  min time  |  avg time  |  max time  |%varavg| %total
---------------------------------------------------------------
Pair    | 15.017     | 15.635     | 16.253     |  15.6 | 75.36
Neigh   | 0.021892   | 0.022848   | 0.023804   |   0.6 |  0.11
Comm    | 2.2906     | 2.9143     | 3.5379     |  36.5 | 14.05
Output  | 0.31499    | 0.32344    | 0.33188    |   1.5 |  1.56
Modify  | 1.5791     | 1.593      | 1.6069     |   1.1 |  7.68
Other   |            | 0.259      |            |       |  1.25

Nlocal:    64.5 ave 65 max 64 min
Histogram: 1 0 0 0 0 0 0 0 0 1
Nghost:    1194 ave 1213 max 1175 min
Histogram: 1 0 0 0 0 0 0 0 0 1
Neighs:    4502 ave 4869 max 4135 min
Histogram: 1 0 0 0 0 0 0 0 0 1

Total # of neighbors = 9004
Ave neighs/atom = 69.7984
Neighbor list builds = 184
Dangerous builds = 0
System init for write_data ...
Setting up Verlet run ...
  Unit style    : metal
  Current step  : 100000
  Time step     : 0.002
Per MPI rank memory allocation (min/avg/max) = 6.617 | 6.617 | 6.617 Mbytes
Step Temp PotEng TotEng Press Volume Lx 
  100000          800   -503.09091   -489.85467      7870.21    1523.7692     11.50729 
  102000    757.17274   -500.75995    -488.2323    90.870116    1536.2881    11.538718 
  104000    777.31598   -500.90518   -488.04426   -10983.729    1544.4543    11.559127 
  106000    852.72497   -500.10777   -485.99918    4957.5221    1529.8713     11.52263 
  108000    841.90498   -499.38752   -485.45795   -28313.683    1568.2629    11.618221 
  110000    789.93643   -500.58023    -487.5105    3678.0113    1533.3987    11.531479 
  112000    707.09345   -500.65892   -488.95985   -3582.7938     1539.351    11.546381 
  114000    815.74935   -499.15475   -485.65793     2655.422    1534.8401    11.535092 
  116000    751.12338   -498.26409   -485.83653   -19697.037    1558.7677    11.594725 
  118000    778.63306   -500.02981    -487.1471    10215.309    1526.2012    11.513409 
  120000    732.05689   -500.34249   -488.23039   -7257.0799    1541.6717    11.552181 
  122000    846.08379   -500.18266   -486.18395    12010.747    1526.6467    11.514529 
  124000    885.19764   -500.69687   -486.05102   -735.97816    1539.3433    11.546362 
  126000    856.85149   -499.88569   -485.70883    193.91446    1538.4695    11.544177 
  128000    752.83895   -500.88345   -488.42751   -9694.0573     1545.967    11.562899 
  130000    680.26025   -499.81841    -488.5633    8934.9737    1526.8437    11.515024 
  132000    834.80298   -498.88095   -485.06889   -4817.3329    1545.8659    11.562647 
  134000    764.51757   -498.77077    -486.1216   -2248.9361    1544.4411    11.559094 
  136000    848.60705   -501.53525   -487.49479     7138.508    1525.5862    11.511862 
  138000    759.28282   -501.43322   -488.87066   -4377.0342    1539.3103    11.546279 
  140000     800.0585   -500.49265   -487.25544   -6903.0052    1542.0707    11.553177 
  142000    800.87432   -499.74398   -486.49327    2260.0115    1536.4714    11.539177 
  144000    805.41475   -498.35675   -485.03093   -4090.7208    1549.3327    11.571284 
  146000    766.62964   -499.28796   -486.60385    1986.4769    1534.3622    11.533894 
  148000    676.68605   -498.41497     -487.219    1836.5068    1537.0283    11.540571 
  150000    666.84201   -499.29699   -488.26389   -5843.0568    1545.6773    11.562177 
Loop time of 9.99798 on 2 procs for 50000 steps with 129 atoms

Performance: 864.174 ns/day, 0.028 hours/ns, 5001.010 timesteps/s
99.0% CPU use with 2 MPI tasks x 1 OpenMP threads

MPI task timing breakdown:
Section |  min time  |  avg time  |  max time  |%varavg| %total
---------------------------------------------------------------
Pair    | 7.5028     | 7.8065     | 8.1102     |  10.9 | 78.08
Neigh   | 0.015621   | 0.016221   | 0.016821   |   0.5 |  0.16
Comm    | 1.129      | 1.4353     | 1.7417     |  25.6 | 14.36
Output  | 0.15769    | 0.16186    | 0.16604    |   1.0 |  1.62
Modify  | 0.44943    | 0.45543    | 0.46142    |   0.9 |  4.56
Other   |            | 0.1227     |            |       |  1.23

Nlocal:    64.5 ave 65 max 64 min
Histogram: 1 0 0 0 0 0 0 0 0 1
Nghost:    1190 ave 1200 max 1180 min
Histogram: 1 0 0 0 0 0 0 0 0 1
Neighs:    4470.5 ave 4709 max 4232 min
Histogram: 1 0 0 0 0 0 0 0 0 1

Total # of neighbors = 8941
Ave neighs/atom = 69.3101
Neighbor list builds = 132
Dangerous builds = 0
----STARTING----
Setting up Verlet run ...
  Unit style    : metal
  Current step  : 0
  Time step     : 0.002
Per MPI rank memory allocation (min/avg/max) = 8.244 | 8.244 | 8.244 Mbytes
Step v_my_time Temp Press Volume f_ave_vol f_ave_temp f_ave_press f_ave_latcon c_msdFe_3[1] c_msdFe_3[2] c_msdFe_3[3] c_msdFe_3[4] 
       0            0    666.84201   -5843.0568    1545.6773            0            0            0            0 7.0707009e-33            0 1.4929689e-34 7.2199978e-33 
    2000            4    923.31228    11432.496    1523.1832    1538.4042    785.29204   -112.84284    2.8859751   0.02820936  0.034117992  0.059150683   0.12147804 
    4000            8    746.82779   -12652.115    1555.2979    1538.5012    793.76715   -37.403821    2.8860456  0.045008316  0.050873979   0.14222135   0.23810365 
    6000           12    778.25815   -1930.4517    1538.3551    1538.6448      798.324   -10.422535    2.8861352  0.075919632   0.12002905   0.17806365   0.37401234 
    8000           16    739.04366    26306.968    1512.5619    1538.4915    797.04679   -1.3588282    2.8860409   0.18517243   0.14890279   0.22234612   0.55642133 
   10000           20    806.22125   -3777.2181    1544.4271    1538.7149    800.61323    -8.444679    2.8861817    0.1826229   0.13699122   0.22054578    0.5401599 
   12000           24    816.62536    6842.4067    1527.7842    1538.7823    801.08019   -63.818202    2.8862235   0.27697792   0.17644638   0.27397951   0.72740381 
   14000           28    795.18052   -4767.8563    1544.3094     1538.666    800.95561    5.5173259      2.88615   0.34418096   0.16465309   0.34470517   0.85353922 
   16000           32    852.70407    4449.9712    1533.6103    1538.6514    800.46565    -2.654687    2.8861399   0.48372044   0.20505897   0.35949621    1.0482756 
   18000           36    783.34008   -9085.2889    1548.1689    1538.8645     803.0712    9.3675766    2.8862735   0.49842246   0.22651426   0.51836781    1.2433045 
   20000           40    824.47535   -1008.2335    1539.9779    1538.9785    804.59511   -8.8081285    2.8863451   0.49326683   0.25069765   0.46324472    1.2072092 
   22000           44    820.45195    15791.826    1520.1414    1539.0854    806.07224    -5.808436    2.8864117   0.59898454   0.31489612   0.45270667    1.3665873 
   24000           48    773.56214   -7710.1856    1545.0607    1538.9499    804.38829   -13.499002    2.8863276   0.68142476   0.37187855   0.62449802    1.6778013 
   26000           52    814.64411    21075.125    1517.6816    1538.8836    803.35515  -0.59441373    2.8862865   0.72426151   0.40629912   0.60364141     1.734202 
   28000           56    799.43453   -892.26506    1540.7677    1538.7756    801.66964   -9.0631833    2.8862187   0.78715201   0.42005285   0.68608566    1.8932905 
   30000           60    731.32003   -6175.7804    1537.6637    1538.7024      800.293    6.2247416    2.8861725   0.80049889   0.40500808   0.69447098     1.899978 
   32000           64    805.49293    10802.367    1522.4366    1538.6161    798.46871   -10.979145    2.8861179   0.77993255   0.45394921   0.72461127     1.958493 
   34000           68      855.071   -12042.349    1549.8975    1538.6213    798.30435   -10.964273    2.8861214   0.80635846   0.46908218   0.79735701    2.0727976 
   36000           72    865.13594    7324.0797    1532.8945    1538.6996    799.83449   -2.6925637    2.8861705   0.82741506   0.48454127   0.83934294    2.1512993 
   38000           76     788.7505   -1317.7445    1546.3634     1538.775    801.41554    5.4355653    2.8862175   0.89800999   0.55831901   0.96897377    2.4253028 
   40000           80    769.45799    5755.0244     1529.911    1538.7928    801.97136   -6.6605549     2.886229   0.91339242   0.53230582    1.0198792    2.4655775 
   42000           84     773.9598   -5847.4567    1541.9911    1538.7819    801.92265    4.8244865    2.8862218   0.91826685   0.59129552    1.0787947    2.5883571 
   44000           88    807.61391     19747.35    1520.3459    1538.7874    801.46737   -11.829967    2.8862248   0.99129621    0.5731816    1.0321719    2.5966497 
   46000           92    732.62572   -2772.9575    1545.9565    1538.7414    800.96365    3.8782326     2.886196    1.0207639   0.63054298    1.1494319    2.8007387 
   48000           96    758.09398    9800.2976     1523.367    1538.7067    800.45302    -1.087447    2.8861743     1.050223    0.6698255    1.2483128    2.9683613 
   50000          100    785.10894    4430.2426     1529.542    1538.6252    799.27969  -0.19520597    2.8861239    1.1008068   0.68056835    1.3111706    3.0925457 
   52000          104    719.33921   -20564.432    1556.5048    1538.5732    798.32449  -0.92885317    2.8860914    1.0761189    0.6949903    1.4441111    3.2152204 
   54000          108    792.58278     11414.45    1522.4479    1538.5316    797.98867    2.7822801    2.8860653    1.0012366   0.67709413     1.402664    3.0809947 
   56000          112    834.53528   -10336.339    1549.9183    1538.4985     797.8467    2.7284406    2.8860449    1.1060391   0.80760296    1.5938157    3.5074578 
   58000          116    852.57096   -11073.206    1551.5051    1538.5077    797.89554   -3.8733047    2.8860505    1.1031015   0.79219921    1.5617814    3.4570821 
   60000          120    903.06781   -16.956973     1534.312    1538.4966    797.47682    4.4652313     2.886043    1.1602705   0.85611138    1.7130729    3.7294548 
   62000          124    781.36072   -787.99743    1535.2977    1538.4635    796.90453   -2.5911156    2.8860224    1.1617199   0.83963487    1.6468193    3.6481741 
   64000          128    824.75117    13926.414    1524.9076    1538.4318     796.7659    8.0166185    2.8860024    1.2671596   0.88763463    1.8073605    3.9621547 
   66000          132    899.39957   -7092.8523     1549.162    1538.4537    797.18398    2.1794071    2.8860165    1.3126177   0.93347563    1.8363018    4.0823951 
   68000          136    860.10468    6056.2335    1532.9622    1538.5175    798.14983   0.79989784    2.8860566     1.675627   0.99108174    1.8223161    4.4890248 
   70000          140    743.03364   -14372.623    1555.5465    1538.5447     798.6438  -0.95944319    2.8860737    1.6169007    1.0795278    1.8575344    4.5539629 
   72000          144    806.91461      4346.63    1531.0299    1538.5711    799.23446  -0.86519268    2.8860902    1.6320464   0.99742531    1.8794859    4.5089576 
   74000          148    799.27193    7641.5426    1534.2064    1538.5861    799.59062    3.9475319    2.8860993     1.649924    1.0542711    1.8858345    4.5900296 
   76000          152    747.06299   -16312.198    1553.1968    1538.6267    800.05957    1.2777482    2.8861244    1.8717429    1.0531863    1.9927283    4.9176575 
   78000          156    805.66168   -600.72946    1537.2365    1538.5877    799.49701     6.868525    2.8861001    1.8188371    1.1111863    2.0216333    4.9516566 
   80000          160     838.5973    19535.304    1518.6069    1538.5528    798.96167    4.0177825    2.8860784    1.7866668     1.106739    2.0472073    4.9406132 
   82000          164    773.81453   -14541.192    1554.1715    1538.5406    798.63536  0.097691046    2.8860708    1.6619348    1.1536949    2.1426212     4.958251 
   84000          168    865.52428   -1699.7209    1536.1099    1538.5414    798.60682    1.3258755    2.8860715    1.6200364    1.1059148    2.1511624    4.8771136 
   86000          172    811.54438   -6601.1014    1542.3166    1538.5464    798.81416   -1.5719166    2.8860747    1.6294714    1.1675068    2.2009892    4.9979673 
   88000          176    848.48695    13057.025    1523.6064    1538.5481    798.94653   0.35222927    2.8860759    1.6001081    1.2637369    2.2722332    5.1360782 
   90000          180    824.04574    1417.8112    1547.1818    1538.5897    799.67338    1.7790056    2.8861021    1.7090871    1.2172794    2.2997403    5.2261068 
   92000          184    911.72656   -3795.0449    1542.7381     1538.599    799.91359    -4.199675    2.8861082    1.8299823    1.2577982    2.3262252    5.4140057 
   94000          188    716.84688    1703.6759    1537.9205    1538.6055    800.08871   0.29078296    2.8861123    1.8917595    1.2447998    2.3803392    5.5168985 
   96000          192    771.55675   -5277.7183     1543.809    1538.6033    800.04404   -2.9966827    2.8861107    1.8525363    1.2682899    2.5917862    5.7126124 
   98000          196    771.34354    9253.9964    1529.3307    1538.5915    800.00358    1.3724447    2.8861034    1.9057922    1.2347288    2.7365049    5.8770259 
----FINISHED: 3/7 ---- T=800 -----
  100000          200    821.39322   -9495.6866    1549.2422    1538.5961    800.02324  -0.23601001    2.8861065    1.9123925    1.3014347    2.5292055    5.7430326 
Loop time of 20.9505 on 2 procs for 100000 steps with 129 atoms

Performance: 824.802 ns/day, 0.029 hours/ns, 4773.162 timesteps/s
98.8% CPU use with 2 MPI tasks x 1 OpenMP threads

MPI task timing breakdown:
Section |  min time  |  avg time  |  max time  |%varavg| %total
---------------------------------------------------------------
Pair    | 14.997     | 15.668     | 16.34      |  17.0 | 74.79
Neigh   | 0.033831   | 0.035409   | 0.036988   |   0.8 |  0.17
Comm    | 2.2338     | 2.9107     | 3.5877     |  39.7 | 13.89
Output  | 0.47344    | 0.48185    | 0.49026    |   1.2 |  2.30
Modify  | 1.5848     | 1.5979     | 1.6109     |   1.0 |  7.63
Other   |            | 0.2561     |            |       |  1.22

Nlocal:    64.5 ave 65 max 64 min
Histogram: 1 0 0 0 0 0 0 0 0 1
Nghost:    1116.5 ave 1123 max 1110 min
Histogram: 1 0 0 0 0 0 0 0 0 1
Neighs:    4442 ave 4699 max 4185 min
Histogram: 1 0 0 0 0 0 0 0 0 1

Total # of neighbors = 8884
Ave neighs/atom = 68.8682
Neighbor list builds = 288
Dangerous builds = 0
System init for write_data ...
Setting up Verlet run ...
  Unit style    : metal
  Current step  : 100000
  Time step     : 0.002
Per MPI rank memory allocation (min/avg/max) = 8.245 | 8.245 | 8.245 Mbytes
Step Temp PotEng TotEng Press Volume Lx 
  100000          900    -498.8842   -483.99344    -8599.013    1549.2422    11.571059 
  102000    815.36213   -497.83031    -484.3399    8138.3183    1533.3778    11.531427 
  104000    797.41099   -496.93597   -483.74257   -16701.359    1561.5453    11.601608 
  106000    997.99639   -498.18269   -481.67054    13023.006    1533.9107    11.532763 
  108000    864.09383   -493.70964   -479.41295    6903.0463    1546.2754    11.563668 
  110000    948.26212   -497.42545   -481.73617   -14400.733    1563.9342    11.607521 
  112000    879.73405   -498.46978   -483.91432   -11385.597    1555.5578    11.586761 
  114000    903.06849   -497.20056   -482.25903    891.69271    1544.6081     11.55951 
  116000    975.22835   -496.80207   -480.66663   -3026.5875    1552.0798    11.578119 
  118000    953.65219   -498.93559   -483.15713    5099.5085    1536.9351    11.540338 
  120000    924.31311   -499.38004   -484.08701    9089.8829     1531.952    11.527852 
  122000    981.63657   -498.20249   -481.96102    -18954.01    1566.3535    11.613504 
  124000    860.40608   -496.58024   -482.34457   -7141.2796    1554.2707    11.583565 
  126000    1020.9268   -495.52592   -478.63438    18217.478    1531.0314    11.525542 
  128000    1016.5349   -497.34721   -480.52834   -5805.2489    1550.5661    11.574354 
  130000    884.92756   -498.13804   -483.49665   -10168.038    1550.8275    11.575004 
  132000    930.44606   -497.83026   -482.43575    21067.988    1520.7919     11.49979 
  134000    887.94236   -496.57272   -481.88145    893.00259    1545.3296     11.56131 
  136000    909.68023   -497.08736   -482.03643    8121.4367    1538.7132    11.544786 
  138000     880.7083   -498.14728    -483.5757   -4205.8246    1548.9264    11.570273 
  140000    977.05476   -495.36482   -479.19915    5800.7351    1543.5662    11.556911 
  142000     885.3503   -496.92604   -482.27766    4149.2276     1536.202    11.538502 
  144000    801.13528   -496.79068   -483.53566    7399.1132    1537.2135    11.541034 
  146000    938.84805   -496.15566   -480.62214   -15866.432    1566.4078    11.613638 
  148000    840.50921   -496.92383   -483.01736    12004.782    1535.4491    11.536617 
  150000    904.38345   -496.42163   -481.45834   -18572.981    1568.5133    11.618839 
Loop time of 10.0369 on 2 procs for 50000 steps with 129 atoms

Performance: 860.823 ns/day, 0.028 hours/ns, 4981.617 timesteps/s
98.8% CPU use with 2 MPI tasks x 1 OpenMP threads

MPI task timing breakdown:
Section |  min time  |  avg time  |  max time  |%varavg| %total
---------------------------------------------------------------
Pair    | 7.4847     | 7.8021     | 8.1195     |  11.4 | 77.73
Neigh   | 0.023488   | 0.024556   | 0.025625   |   0.7 |  0.24
Comm    | 1.0735     | 1.3939     | 1.7144     |  27.1 | 13.89
Output  | 0.23355    | 0.23771    | 0.24188    |   0.9 |  2.37
Modify  | 0.4516     | 0.45796    | 0.46433    |   0.9 |  4.56
Other   |            | 0.1206     |            |       |  1.20

Nlocal:    64.5 ave 65 max 64 min
Histogram: 1 0 0 0 0 0 0 0 0 1
Nghost:    1105 ave 1107 max 1103 min
Histogram: 1 0 0 0 0 0 0 0 0 1
Neighs:    4452 ave 4701 max 4203 min
Histogram: 1 0 0 0 0 0 0 0 0 1

Total # of neighbors = 8904
Ave neighs/atom = 69.0233
Neighbor list builds = 202
Dangerous builds = 0
----STARTING----
Setting up Verlet run ...
  Unit style    : metal
  Current step  : 0
  Time step     : 0.002
Per MPI rank memory allocation (min/avg/max) = 9.872 | 9.872 | 9.872 Mbytes
Step v_my_time Temp Press Volume f_ave_vol f_ave_temp f_ave_press f_ave_latcon c_msdFe_4[1] c_msdFe_4[2] c_msdFe_4[3] c_msdFe_4[4] 
       0            0    904.38345   -18572.981    1568.5133            0            0            0            0 2.4484691e-34            0            0 2.4484691e-34 
    2000            4    776.12445    7185.7197    1529.1545    1543.3756     873.6599   -57.615452    2.8890888  0.039613232  0.028880279  0.035396723   0.10389023 
    4000            8    854.54039    20500.026    1520.7573    1543.4498    878.11358   -48.671782    2.8891407   0.14500881   0.07568749    0.1074716    0.3281679 
    6000           12    1003.5162    -15725.58    1562.5275    1544.1121    887.46447   -55.815052    2.8895517   0.13394189  0.070894917   0.13223627   0.33707308 
    8000           16    786.46014    13990.356    1535.1294    1544.4844    892.30448   -15.489452    2.8897812   0.16173612   0.12393564   0.15246343   0.43813519 
   10000           20    781.70219   -25414.237    1573.3601    1544.6634    893.34302   -31.141177     2.889892   0.20661875   0.23895428   0.19475996     0.640333 
   12000           24    860.48146    5421.1596     1538.912     1544.659     893.3947   -10.028971    2.8898897   0.23947187   0.32597271   0.24489439   0.81033897 
   14000           28    883.41109   -2889.2557    1550.9226    1544.9551     898.5903    -16.27463     2.890074   0.29997221   0.36273068   0.33072417   0.99342705 
   16000           32    1038.7333   -2513.5854    1551.5353    1545.0181    900.86084   -15.838746    2.8901151   0.28954455   0.40377786   0.32154867    1.0148711 
   18000           36    960.91226    14347.252    1531.0153    1545.2112    904.00385   -34.320782     2.890235   0.35693063   0.39045749   0.34190468    1.0892928 
   20000           40    933.19082   -8463.6009    1557.8128    1545.1271    903.31464   -28.269559    2.8901827   0.41176015   0.47599291   0.41449358    1.3022466 
   22000           44    1028.5648    1006.2874    1546.9539    1545.1327    904.12828  -0.72534689    2.8901859    0.5053919    0.4747225   0.51414663     1.494261 
   24000           48    982.72741    6029.2252    1543.3272    1545.0814    903.01602   -13.117719    2.8901551   0.49524963   0.50608027   0.45378485    1.4551147 
   26000           52     833.6579    13365.773    1524.7785         1545    901.17933     -29.9158    2.8901037   0.49085712   0.69394114   0.43105985    1.6158581 
   28000           56    884.80853   -6614.2831    1547.3499    1544.8214    898.65632    -22.16671    2.8899927   0.55949825   0.85975618   0.46109949    1.8803539 
   30000           60    885.50421    1703.4218    1543.7316    1544.7166    897.77603  -0.74776422    2.8899271    0.5850876    1.0168803   0.55086326    2.1528312 
   32000           64    909.78967    995.14674    1548.1964    1544.7371    898.30746   -4.3660794    2.8899405   0.63324655    1.0345476   0.63693377    2.3047279 
   34000           68    867.33221   -1108.9305     1549.839    1544.8892     900.5046   -20.224949    2.8900352   0.64828521    1.1191753   0.66898227    2.4364428 
   36000           72    830.98572     4495.759    1540.2937     1544.892    901.04537   -8.6677774    2.8900367   0.73516284    1.1663213    0.6760138    2.5774979 
   38000           76     934.7322    501.61577    1542.2525    1544.8949    901.30397   -17.493826    2.8900394   0.80257928    1.2165798   0.69785637    2.7170154 
   40000           80    899.31027   -10619.121    1552.8427    1545.0083    903.24838   -7.7933422    2.8901092   0.84310419    1.4098144   0.69057757    2.9434962 
   42000           84    1020.6138    11733.578    1533.5361    1545.0778    903.95831   -13.480662    2.8901516   0.89872825    1.3461927   0.72001499    2.9649359 
   44000           88    877.93519   -16737.358    1568.4094    1545.1629     905.4614    9.6843447     2.890204   0.93364098    1.4148026   0.84330927    3.1917529 
   46000           92    883.20005    7698.8944    1532.5579      1545.18    905.27702   -6.3499426    2.8902144    1.0288175    1.4538706    1.0015962    3.4842843 
   48000           96    858.57818    6610.4921    1532.2148    1545.1556    905.16372   -1.1970176    2.8901998   0.97408257     1.517251    1.0650697    3.5564033 
   50000          100    859.56958   -7163.8072    1547.9805    1545.0555    903.57883   -6.8747198     2.890137    1.0497192    1.4989553    1.1545564    3.7032309 
   52000          104    991.64507   -7026.1401    1552.1171    1545.0455    903.57859   -8.8301891    2.8901313    1.1302309    1.5116447    1.2237463    3.8656218 
   54000          108     1066.272    2720.3156    1537.8521    1545.0311    903.17557   -6.7958994    2.8901221    1.2206468     1.635857    1.2351066    4.0916105 
   56000          112    888.51693   -10767.868    1559.4194    1545.0727    903.60222   -12.058476    2.8901485    1.1892913    1.6161436     1.223512    4.0289469 
   58000          116    984.83646    9849.8042    1530.4026    1545.0558    903.82593    7.6644704    2.8901375    1.1987451    1.8262395    1.1618026    4.1867872 
   60000          120    924.13096    2258.6901    1545.2927    1545.1081     904.4212   -5.2509791    2.8901701    1.3121902    1.7729792    1.2269843    4.3121537 
   62000          124    976.12214   -7383.2991    1561.4645    1545.1659     905.3703   -5.4998247    2.8902059    1.3725124    1.8125872      1.21557    4.4006696 
   64000          128    929.78001    10413.665    1530.8683    1545.1689    905.72861   -7.0174609    2.8902082    1.4529489    1.7943144     1.278139    4.5254023 
   66000          132    820.17143   -1084.8392    1546.5049    1545.1757    905.91783   -5.6746718    2.8902117    1.6378531    1.8973205    1.3520812    4.8872547 
   68000          136    872.14211   -12382.062    1551.0107    1545.2296    906.92637    2.9149948     2.890245    1.6876467    1.7884831      1.36778    4.8439098 
   70000          140    967.54273    6668.7125    1538.4016    1545.2446    906.90862   -5.7337079    2.8902544    1.8015051    2.0206816    1.4825975    5.3047842 
   72000          144    1036.7567   -13090.322    1562.4993    1545.2745    907.17871   -5.8495182    2.8902728    1.7514798    2.1085221    1.6647283    5.5247302 
   74000          148    969.87111   -15600.576    1564.9936    1545.3162    907.71342   -1.1371816    2.8902991    1.8482584    2.3397408    1.8205652    6.0085644 
   76000          152    872.84158    -2103.507    1544.3705    1545.2863     907.4041     2.258755    2.8902805    1.9609213    2.1407373    1.8570328    5.9586914 
   78000          156    858.62008    5920.4783    1533.4991    1545.2298    906.39973   -3.4057237    2.8902452    1.9762104     2.194017    1.7706169    5.9408443 
   80000          160    973.02671    8491.6253    1530.4083    1545.1672    905.68126    5.1600297    2.8902064    2.0781165    2.2361612    1.7512871    6.0655648 
   82000          164     874.0862   -380.07247    1547.5208    1545.1509    905.24681   -4.2061797    2.8901959    2.0676463    2.2864944    1.8045915    6.1587321 
   84000          168    902.79166   -14102.715     1559.682    1545.1515    905.24739    1.2423111     2.890196    2.1733355    2.4941511    1.8069011    6.4743877 
   86000          172    985.89754    5380.8891    1545.4871    1545.1672    905.48775  0.059370434     2.890206    2.1695387    2.7213523    1.8288851    6.7197761 
   88000          176    898.66897   -105.51748    1545.0893    1545.2026    905.96412   -3.9123643    2.8902283    2.0905007     2.794006    1.7501893     6.634696 
   90000          180    904.42594   -15307.069    1565.0517     1545.178    905.82329   -4.1442228     2.890213    2.1215615    2.8865294    1.9180995    6.9261904 
   92000          184    942.11442    9249.2845    1537.6476    1545.1773    905.70842  -0.33768811    2.8902126    2.2135684     2.893668    1.9904802    7.0977166 
   94000          188    825.93929   -9434.7498    1561.6889    1545.1637    905.70335    -5.289867    2.8902043     2.187363    2.9426966    1.9146808    7.0447404 
   96000          192    872.46531   -919.33762    1541.9022    1545.1309    905.50686   0.94843461    2.8901838    2.2927148    3.0600114    2.1057072    7.4584334 
   98000          196    898.11026     -14235.6    1556.7182    1545.1552    905.73594   -3.3085702    2.8901986    2.4133489    3.0528366    2.1272063    7.5933918 
----FINISHED: 4/7 ---- T=900 -----
  100000          200    884.92645     6506.191     1535.424    1545.1485    905.75331     4.885397    2.8901944    2.4103486    3.0398208    2.0833494    7.5335188 
Loop time of 20.4712 on 2 procs for 100000 steps with 129 atoms

Performance: 844.114 ns/day, 0.028 hours/ns, 4884.918 timesteps/s
99.1% CPU use with 2 MPI tasks x 1 OpenMP threads

MPI task timing breakdown:
Section |  min time  |  avg time  |  max time  |%varavg| %total
---------------------------------------------------------------
Pair    | 14.999     | 15.398     | 15.797     |  10.2 | 75.22
Neigh   | 0.049103   | 0.050738   | 0.052374   |   0.7 |  0.25
Comm    | 2.1422     | 2.547      | 2.9517     |  25.4 | 12.44
Output  | 0.62007    | 0.62843    | 0.63679    |   1.1 |  3.07
Modify  | 1.5837     | 1.5965     | 1.6094     |   1.0 |  7.80
Other   |            | 0.2505     |            |       |  1.22

Nlocal:    64.5 ave 65 max 64 min
Histogram: 1 0 0 0 0 0 0 0 0 1
Nghost:    1078.5 ave 1082 max 1075 min
Histogram: 1 0 0 0 0 0 0 0 0 1
Neighs:    4478.5 ave 4679 max 4278 min
Histogram: 1 0 0 0 0 0 0 0 0 1

Total # of neighbors = 8957
Ave neighs/atom = 69.4341
Neighbor list builds = 418
Dangerous builds = 0
System init for write_data ...
Setting up Verlet run ...
  Unit style    : metal
  Current step  : 100000
  Time step     : 0.002
Per MPI rank memory allocation (min/avg/max) = 9.872 | 9.872 | 9.872 Mbytes
Step Temp PotEng TotEng Press Volume Lx 
  100000         1000   -497.57289   -481.02759    7830.6573     1535.424    11.536554 
  102000    955.80566   -497.72318   -481.90909    10968.819    1534.1349    11.533325 
  104000    987.57233   -495.64371   -479.30403    4126.0331    1543.1553    11.555885 
  106000    1082.1275   -496.48485   -478.58073    1566.9501    1551.1779    11.575876 
  108000    917.52504   -494.56072   -479.37999   -10733.446    1568.5614    11.618958 
  110000    868.11338   -496.60993   -482.24673   -12046.121    1555.8981    11.587606 
  112000     1069.142   -494.05573   -476.36645   -12615.276    1566.4532     11.61375 
  114000    1113.7674   -494.36799   -475.94038     7032.791    1548.3451    11.568825 
  116000    930.47975   -495.68221   -480.28714   -3327.8015    1554.9294      11.5852 
  118000    1034.8921   -497.40452   -480.28192    -16606.52    1560.8631    11.599918 
  120000    896.91829    -492.5014   -477.66162   -16830.773    1578.7943    11.644169 
  122000    1081.0434   -495.67715   -477.79097    9508.1526    1540.3585    11.548899 
  124000     1086.411   -492.89499   -474.91999    1116.5372    1557.9995     11.59282 
  126000    948.44155   -495.66261   -479.97036    5425.4698    1548.3833     11.56892 
  128000    898.61028   -493.97297    -479.1052    15477.821    1537.7735    11.542436 
  130000    1006.1322    -494.9615   -478.31475   -5046.0641    1559.4082    11.596313 
  132000    1012.4662    -495.0979   -478.34635    15181.252    1532.2557    11.528614 
  134000    895.04225   -496.30418   -481.49544    719.63326    1545.1249    11.560799 
  136000    1135.5068   -494.61537   -475.82807   -16801.569    1573.8229    11.631935 
  138000    1061.4033   -495.24176   -477.68052   -1667.6844    1556.5887     11.58932 
  140000    977.17673   -493.31125   -477.14357    2133.1448    1552.2208     11.57847 
  142000    1029.6979   -495.79656    -478.7599    14041.821    1539.1096    11.545778 
  144000    989.81374   -494.33776   -477.96099   -1463.2882     1557.425    11.591395 
  146000    969.68151   -494.39703   -478.35336     3047.577    1549.7966    11.572439 
  148000    1031.2811   -498.09685   -481.03399    15615.612    1527.9093    11.517702 
  150000    1035.1745   -496.91807    -479.7908    13145.051    1533.5313    11.531812 
Loop time of 9.77423 on 2 procs for 50000 steps with 129 atoms

Performance: 883.957 ns/day, 0.027 hours/ns, 5115.494 timesteps/s
99.2% CPU use with 2 MPI tasks x 1 OpenMP threads

MPI task timing breakdown:
Section |  min time  |  avg time  |  max time  |%varavg| %total
---------------------------------------------------------------
Pair    | 7.4592     | 7.6276     | 7.796      |   6.1 | 78.04
Neigh   | 0.033623   | 0.034577   | 0.035531   |   0.5 |  0.35
Comm    | 1.0545     | 1.2256     | 1.3967     |  15.5 | 12.54
Output  | 0.30897    | 0.31314    | 0.31731    |   0.7 |  3.20
Modify  | 0.44802    | 0.45453    | 0.46104    |   1.0 |  4.65
Other   |            | 0.1188     |            |       |  1.22

Nlocal:    64.5 ave 65 max 64 min
Histogram: 1 0 0 0 0 0 0 0 0 1
Nghost:    1088 ave 1089 max 1087 min
Histogram: 1 0 0 0 0 0 0 0 0 1
Neighs:    4393.5 ave 4511 max 4276 min
Histogram: 1 0 0 0 0 0 0 0 0 1

Total # of neighbors = 8787
Ave neighs/atom = 68.1163
Neighbor list builds = 287
Dangerous builds = 0
----STARTING----
Setting up Verlet run ...
  Unit style    : metal
  Current step  : 0
  Time step     : 0.002
Per MPI rank memory allocation (min/avg/max) = 11.5 | 11.5 | 11.5 Mbytes
Step v_my_time Temp Press Volume f_ave_vol f_ave_temp f_ave_press f_ave_latcon c_msdFe_5[1] c_msdFe_5[2] c_msdFe_5[3] c_msdFe_5[4] 
       0            0    1035.1745    13145.051    1533.5313            0            0            0            0            0            0            0            0 
    2000            4     1124.594   -6479.2001    1559.6905    1552.3725    1009.8232   -75.192321    2.8946781  0.042232274  0.081019987  0.047575591   0.17082785 
    4000            8    1017.4117    6201.6415    1558.2343    1552.8626    1014.8226   -65.649231    2.8949923   0.12233495   0.14134899  0.068468685   0.33215262 
    6000           12    930.75734   -10104.962    1564.1357    1552.8531    1018.5152    63.680257    2.8949869  0.090099784   0.21217095  0.091049446   0.39332018 
    8000           16    971.73315    6038.9974    1545.0552    1552.5708    1016.5887    55.840845    2.8948135  0.053898224   0.12396779   0.10086345   0.27872947 
   10000           20    903.08523    3202.0235    1546.3503    1552.5605    1015.4322    19.874011    2.8948047   0.13656485   0.19959843   0.20060643   0.53676971 
   12000           24    940.60346   -1231.7198      1553.71    1552.1723    1010.2762     34.72904    2.8945657   0.23127823   0.34883548   0.34243315   0.92254687 
   14000           28    1082.6448    5458.6841    1545.3934    1552.1651    1009.4095    36.931954    2.8945594   0.32114672   0.42587907   0.48924312    1.2362689 
   16000           32    989.74115    7222.6925    1541.8633    1551.8116    1004.3419    1.6502209    2.8943407   0.34943971   0.48335771   0.55339532    1.3861927 
   18000           36    1074.3616    18740.201    1533.7331    1551.8249    1003.9038   -23.096758    2.8943492   0.49379468   0.49290998   0.56468009    1.5513848 
   20000           40    975.38187   -5395.0651    1557.2134    1551.8392    1004.9882    10.477452    2.8943581   0.57102726   0.52245946   0.63289751    1.7263842 
   22000           44    1014.5497    14670.927    1536.6746    1551.9328    1005.6788    15.831387    2.8944145   0.52805827   0.56528632    0.6160185    1.7093631 
   24000           48    1041.1301   -1842.4179    1564.8721    1552.1367     1008.419     13.44895    2.8945419   0.56632719   0.58403778   0.77870379    1.9290688 
   26000           52    1053.9434    25213.376    1522.3655    1552.2626    1010.5733    17.590127    2.8946207   0.62077355   0.60790044   0.82286443    2.0515384 
   28000           56    967.49621    3666.3342    1546.0306    1552.2588    1010.7483    5.7619482    2.8946179   0.65877876   0.60345022   0.81906247    2.0812915 
   30000           60    1033.0786    20870.028    1535.1265    1552.2554    1011.0617    3.1914996     2.894616   0.80026453   0.80957073   0.86060835    2.4704436 
   32000           64    1093.2952   -347.63779    1553.3878    1552.2635    1011.0147   -4.7214422    2.8946218   0.80064456    0.9128168    0.9773051    2.6907665 
   34000           68    956.16367    -3104.179    1555.1356    1552.2472    1011.0515   -10.500878    2.8946116   0.86319178    1.1394093    1.0855325    3.0881335 
   36000           72    841.02197    -17253.35    1561.9477    1552.0795    1008.5534    7.3179111    2.8945057   0.99055765    1.2042555    1.2292826    3.4240958 
   38000           76    1026.6488   -6157.0834    1548.4829    1551.9202    1006.4602     16.35856    2.8944067    1.0270934    1.2687993    1.2213283    3.5172209 
   40000           80    882.36391   -3727.9589    1560.8474    1551.8218    1004.8135   -2.1903063    2.8943462    1.1572524    1.4775923    1.3317579    3.9666026 
   42000           84    1008.4848   -12545.949    1566.3437    1551.7516    1003.9645    7.2654179    2.8943023    1.1387813     1.520312    1.3435615    4.0026548 
   44000           88     902.8388    -22185.58     1569.662    1551.6825    1002.9737   -3.1062992    2.8942597     1.218276    1.5651248     1.294909    4.0783098 
   46000           92    960.06584    1360.3285    1547.6161    1551.6703    1002.7699    13.524643    2.8942512    1.3326642     1.653404    1.2491822    4.2352505 
   48000           96    1059.6739   -1588.5228    1549.8437    1551.6785    1002.8054    1.2354429    2.8942571    1.4489635    1.5891152    1.2269867    4.2650654 
   50000          100    981.57398   -18019.622    1577.7988    1551.6582         1003   -2.3763517    2.8942445    1.6538198     1.695027    1.3440307    4.6928776 
   52000          104    1069.7595   -14317.916    1569.5548    1551.7099    1004.0328     4.197528    2.8942768    1.6018946    1.6799853    1.3119537    4.5938335 
   54000          108    986.24439    227.70599    1548.2863    1551.7816     1004.824    15.548274    2.8943206    1.5606562    1.6863338    1.4796772    4.7266672 
   56000          112    970.57031    13454.613    1534.4907    1551.8254    1005.1138   -1.9178198    2.8943481    1.7018289     1.830132    1.5903619    5.1223229 
   58000          116    1021.2522   -2118.7715    1561.7855    1551.9084    1006.1354    2.0731522    2.8943994    1.7025812    1.8338985    1.6642793     5.200759 
   60000          120    981.86637    5575.1888    1547.1619    1551.9286    1006.6631   -8.1075784    2.8944124    1.8143747    1.8693706    1.6055434    5.2892887 
   62000          124    1009.0754   -17277.711    1571.9973    1551.9075    1006.4712    2.5715692    2.8943994    2.1484459    1.7896899    1.6945594    5.6326952 
   64000          128    907.18003   -2511.5915    1547.0513    1551.8568    1005.5018   0.25400852    2.8943678      2.14096    1.8053573    1.7129053    5.6592225 
   66000          132    1077.7927   -10890.707    1559.2308    1551.7733    1004.2599   -2.5837578    2.8943158    2.2580314     1.841472    1.9906534    6.0901568 
   68000          136    904.05557   -5032.7182    1564.3988    1551.7335    1003.6706  -0.93883518    2.8942909    2.4887335    1.9605831    2.1470064    6.5963229 
   70000          140    985.47248   -88.373706     1552.978    1551.6704    1002.8997     3.323221     2.894252    2.4320028    1.9991761    2.2323488    6.6635278 
   72000          144    990.45398    18809.446    1526.1737    1551.6585    1002.5264     -3.63858    2.8942448    2.5500922    1.9915068    2.3780827    6.9196817 
   74000          148    1014.8578   -11473.503    1556.8163    1551.5948    1001.8804    4.4570325    2.8942053    2.5211328    1.9852919    2.2962428    6.8026675 
   76000          152    1146.8511   -5994.0879     1555.637    1551.6285     1002.331    0.4331606    2.8942261    2.6145622    2.2520507    2.2856412    7.1522541 
   78000          156    987.25567   -21772.786    1578.6988    1551.6821    1002.9837   -4.7060307    2.8942593    2.8686319    2.2917568    2.3515427    7.5119315 
   80000          160    1008.7021   -9651.0893    1563.1832    1551.6908     1003.353     7.302712    2.8942647    2.8030344    2.3119699    2.4126407     7.527645 
   82000          164    1055.8238   -2058.1359    1558.1954    1551.7248    1003.8922    4.2511807    2.8942861    2.7199436     2.460417     2.463503    7.6438637 
   84000          168    1068.3487    6862.7005    1543.1284    1551.7605    1004.2349    1.4880453    2.8943079    2.5569672    2.4002749    2.4704524    7.4276944 
   86000          172    1004.0138    249.96066    1547.7507    1551.7448    1004.3248    9.1026283    2.8942981    2.9777311    2.6104854    2.6276062    8.2158227 
   88000          176    893.33055    16734.734    1529.6689    1551.7976    1005.0849    5.3490439    2.8943311    3.0445385    2.6881414    2.6063113    8.3389912 
   90000          180    1043.8273    6034.3272    1548.2734    1551.8029    1005.1504    2.0776266    2.8943344    2.9746984    2.6524626    2.9477894    8.5749504 
   92000          184    983.70465   -15814.467    1569.5029    1551.8245    1005.6534    6.3473359     2.894348    3.1111508    2.7895827    2.9605311    8.8612645 
   94000          188    1081.8977   -2790.9847    1558.3041    1551.8377    1005.8562   0.66169994    2.8943563    3.1731195     2.768305    2.8535706    8.7949951 
   96000          192    1056.3022   -12807.149     1566.948    1551.8742    1006.5457    6.2299469     2.894379    3.1860521     2.675715    2.8868435    8.7486106 
   98000          196    1031.2913   -6064.3171    1563.6578    1551.8648    1006.2329    1.2765011    2.8943734    3.3270487     2.726786    2.9122642     8.966099 
----FINISHED: 5/7 ---- T=1000 -----
  100000          200     928.9044     6464.048     1542.782     1551.872    1006.1806     3.471931    2.8943776    3.2702407    2.6817459    2.8832112    8.8351978 
Loop time of 20.4996 on 2 procs for 100000 steps with 129 atoms

Performance: 842.942 ns/day, 0.028 hours/ns, 4878.139 timesteps/s
99.0% CPU use with 2 MPI tasks x 1 OpenMP threads

MPI task timing breakdown:
Section |  min time  |  avg time  |  max time  |%varavg| %total
---------------------------------------------------------------
Pair    | 14.993     | 15.323     | 15.652     |   8.4 | 74.75
Neigh   | 0.068608   | 0.070473   | 0.072339   |   0.7 |  0.34
Comm    | 2.1421     | 2.4778     | 2.8134     |  21.3 | 12.09
Output  | 0.77374    | 0.78224    | 0.79073    |   1.0 |  3.82
Modify  | 1.5847     | 1.5979     | 1.6111     |   1.0 |  7.79
Other   |            | 0.2485     |            |       |  1.21

Nlocal:    64.5 ave 65 max 64 min
Histogram: 1 0 0 0 0 0 0 0 0 1
Nghost:    1086.5 ave 1089 max 1084 min
Histogram: 1 0 0 0 0 0 0 0 0 1
Neighs:    4456.5 ave 4625 max 4288 min
Histogram: 1 0 0 0 0 0 0 0 0 1

Total # of neighbors = 8913
Ave neighs/atom = 69.093
Neighbor list builds = 581
Dangerous builds = 0
System init for write_data ...
Setting up Verlet run ...
  Unit style    : metal
  Current step  : 100000
  Time step     : 0.002
Per MPI rank memory allocation (min/avg/max) = 11.5 | 11.5 | 11.5 Mbytes
Step Temp PotEng TotEng Press Volume Lx 
  100000         1100   -495.95864   -477.75882    8423.9213     1542.782    11.554953 
  102000    1132.5897   -494.14159   -475.40256   -8854.4712    1568.1171    11.617861 
  104000    1118.8809   -493.23115   -474.71894    -18581.87    1579.2484    11.645286 
  106000    1227.3137   -494.17051   -473.86423     2350.966     1554.073    11.583073 
  108000    1087.7025   -491.28914   -473.29278        32396    1531.9293    11.527795 
  110000    1169.0057   -496.22216   -476.88061   -1612.3178    1553.5015    11.581653 
  112000    1083.8497   -492.81123   -474.87861   -1811.1291    1557.4403    11.591433 
  114000     1166.752   -490.77808   -471.47382       1387.3    1569.1953    11.620523 
  116000    1064.6325   -490.15382   -472.53916   -2213.0911    1568.7676    11.619467 
  118000     1045.833   -494.57033   -477.26671   -23039.111    1578.7125    11.643968 
  120000    1002.0243    -491.7036   -475.12481    18528.027    1539.9905     11.54798 
  122000    1138.6101   -491.45929   -472.62065   -2615.0489    1568.9214    11.619847 
  124000    1032.1017   -494.54303    -477.4666    8143.3318    1546.6366    11.564568 
  126000    1031.3653   -493.34338   -476.27913    20441.731    1532.7516    11.529857 
  128000    1111.2342   -493.51155   -475.12585   -9361.2176    1570.8964     11.62472 
  130000    1157.0286   -493.68741   -474.54403   -15044.737    1571.2616    11.625621 
  132000    1030.9404   -492.92891   -475.87169    7825.8574    1550.8234    11.574994 
  134000     1186.181   -494.27274   -474.64702    2122.8623    1557.6395    11.591927 
  136000    1162.4883   -494.21698   -474.98327     13325.04    1538.2487    11.543624 
  138000    1028.5113   -494.98981   -477.97278    1961.9743    1549.8517    11.572576 
  140000    1095.5294   -491.62533   -473.49947   -7207.9843    1577.5946    11.641219 
  142000    1191.1875    -494.9963   -475.28774   -12948.122    1567.8971    11.617317 
  144000    1046.9987   -493.28046   -475.95756   -9765.6641    1564.3691    11.608597 
  146000    1145.8295   -492.07264   -473.11455   -5643.4231     1568.085    11.617781 
  148000    1179.9498   -492.21075   -472.68813   -1005.2547    1563.8911    11.607415 
  150000    1201.4207   -494.63727   -474.75941    18391.624    1536.0559    11.538136 
Loop time of 9.87682 on 2 procs for 50000 steps with 129 atoms

Performance: 874.776 ns/day, 0.027 hours/ns, 5062.360 timesteps/s
99.0% CPU use with 2 MPI tasks x 1 OpenMP threads

MPI task timing breakdown:
Section |  min time  |  avg time  |  max time  |%varavg| %total
---------------------------------------------------------------
Pair    | 7.4457     | 7.6265     | 7.8073     |   6.5 | 77.22
Neigh   | 0.04491    | 0.046355   | 0.047801   |   0.7 |  0.47
Comm    | 1.0569     | 1.241      | 1.4251     |  16.5 | 12.57
Output  | 0.38585    | 0.38996    | 0.39406    |   0.7 |  3.95
Modify  | 0.44846    | 0.45505    | 0.46163    |   1.0 |  4.61
Other   |            | 0.1179     |            |       |  1.19

Nlocal:    64.5 ave 65 max 64 min
Histogram: 1 0 0 0 0 0 0 0 0 1
Nghost:    1101.5 ave 1103 max 1100 min
Histogram: 1 0 0 0 0 0 0 0 0 1
Neighs:    4502 ave 4684 max 4320 min
Histogram: 1 0 0 0 0 0 0 0 0 1

Total # of neighbors = 9004
Ave neighs/atom = 69.7984
Neighbor list builds = 383
Dangerous builds = 0
----STARTING----
Setting up Verlet run ...
  Unit style    : metal
  Current step  : 0
  Time step     : 0.002
Per MPI rank memory allocation (min/avg/max) = 13.13 | 13.13 | 13.13 Mbytes
Step v_my_time Temp Press Volume f_ave_vol f_ave_temp f_ave_press f_ave_latcon c_msdFe_6[1] c_msdFe_6[2] c_msdFe_6[3] c_msdFe_6[4] 
       0            0    1201.4207    18391.624    1536.0559            0            0            0            0            0            0            0            0 
    2000            4    973.52304    7537.0141    1546.0896    1558.4379    1094.5103    190.93005    2.8984591  0.060310922   0.12084839  0.083834766   0.26499408 
    4000            8    1115.3537    5078.6337    1546.5628    1557.4916    1084.2076    105.46848    2.8978779  0.092957417    0.2072136   0.20142663   0.50159764 
    6000           12    1173.6614   -1516.1445    1558.5009    1557.3233    1079.6722    22.253556    2.8977689   0.10175897   0.25916617   0.26260817   0.62353331 
    8000           16    1062.9831   -9693.5332    1572.2801    1557.6603    1083.7576   -69.116177    2.8979777   0.21827253   0.27396262   0.40388082   0.89611597 
   10000           20    1128.9133    4607.4209    1559.1558    1556.9795    1077.3573   0.94522364    2.8975525    0.2454135   0.44501768   0.42285907    1.1132903 
   12000           24    1136.1505     7092.304    1542.2078    1557.2565     1079.912   -53.061057    2.8977248   0.33769331   0.54361928   0.50776839     1.389081 
   14000           28     1017.905    1871.0831    1551.0761    1557.0112     1077.823    7.8237601    2.8975728   0.39373676   0.60722194   0.51746994    1.5184286 
   16000           32    965.36611   -4277.3877    1563.0296    1556.9937     1078.601    29.560593    2.8975608   0.70678712    0.7764817   0.75966445    2.2429333 
   18000           36    1106.7482    782.88541    1553.3355     1557.217    1081.1032   -11.713683    2.8977007   0.79893006   0.69522064   0.82213722    2.3162879 
   20000           40    1189.8057    11332.324    1542.8425    1557.4971    1085.1332    6.1430299    2.8978735   0.83395215   0.79373293   0.87745886    2.5051439 
   22000           44    1158.9691    15209.972    1545.2447    1557.7855    1089.0149   -12.137752    2.8980531   0.98125137   0.91157935    1.1171369    3.0099677 
   24000           48    1109.1145   -1463.4594    1572.8365    1557.9434    1091.7485    4.0636758     2.898151    1.1584137    1.1506135    1.1389936    3.4480208 
   26000           52    1174.1269    3417.1898    1555.3239    1558.1044    1093.9093   -6.6863148    2.8982514    1.1363049    1.2245157    1.2943462    3.6551668 
   28000           56    1032.9263    -4793.088    1569.6001    1558.3546    1096.9698    1.0652623     2.898405    1.3433925    1.2851983    1.4171338    4.0457245 
   30000           60    994.00637    1743.4597    1561.9841    1558.3999     1097.544   -16.327744    2.8984333    1.4013399    1.4466966    1.7013957    4.5494322 
   32000           64     1003.688   -11069.877    1573.3046    1558.5448    1099.6642   -26.777045    2.8985225     1.434975    1.6728424    1.6077341    4.7155515 
   34000           68    999.93281    3151.7125     1550.777    1558.6066    1100.5273   -17.162131    2.8985613    1.4802311    1.6741517    1.6421255    4.7965084 
   36000           72    1022.6267    4294.2468     1545.863     1558.464    1098.2416   -29.333997    2.8984734    1.5802572    1.6040026    1.6929491     4.877209 
   38000           76    983.32138     1347.571    1556.7201    1558.5307    1099.1919    8.2887781    2.8985131    1.5672159    1.6952198    1.6588077    4.9212434 
   40000           80      1057.88    1238.7643    1550.9262    1558.6131    1100.2197   -12.683506    2.8985643    1.6780038    1.6545767     1.750891    5.0834715 
   42000           84    1176.6085      5432.49    1547.0847    1558.5845    1099.7975    4.7856679    2.8985462    1.6729361     1.613014     1.799988    5.0859381 
   44000           88    1056.5838   -602.06477    1555.3843    1558.5397    1099.0139    2.3419371    2.8985187    1.6407648    1.7811568    1.8840969    5.3060185 
   46000           92    1048.9428   -2663.3903    1564.2847    1558.4815    1097.8567   -9.0924702    2.8984814    1.7549902    1.6952423    2.3328216    5.7830541 
   48000           96    1221.0146   -9173.3136    1569.6641    1558.5119    1097.8498   -11.409989    2.8984996    1.7790366    1.7032616    2.3438257    5.8261239 
   50000          100    1136.8091   -6464.5726    1578.3922    1558.5942    1098.8445   -9.5115683    2.8985512    1.9656906      1.94257    2.4896614    6.3979219 
   52000          104     1148.902   -26163.788    1585.4014    1558.6623    1099.9704   -14.142026    2.8985936    2.0143982    2.0559561    2.5339428     6.604297 
   54000          108    930.81935   -4811.9018    1569.2004    1558.7222    1100.4967   -10.026213    2.8986304    2.0273559     1.943657    2.6761871       6.6472 
   56000          112    1176.5577    10225.916    1548.5103    1558.7514    1100.8974   -10.503827    2.8986488    2.0118005    1.9591138    2.7102841    6.6811984 
   58000          116    1196.2922    4547.3615    1547.9638    1558.7245    1100.4163   -1.5177455    2.8986315    2.2138204    2.1188553    2.6177413     6.950417 
   60000          120    1159.1473    13508.786    1530.9598    1558.6438    1099.1519   -4.8692211    2.8985816    2.2270407     2.153519    2.9771276    7.3576872 
   62000          124     1160.019    2545.1858    1561.8856    1558.5997    1098.5109   -6.3887795    2.8985544    2.2907884    2.1878262    3.2039267    7.6825414 
   64000          128    1098.3272    3846.2875    1549.9338     1558.613    1099.1573    7.6145486    2.8985623     2.260654    2.2601128    3.1751884    7.6959552 
   66000          132    1042.6693   -3996.3596    1564.8131    1558.6725    1099.8493   -1.0895897    2.8985991    2.2843324    2.3317434     3.126492    7.7425678 
   68000          136    1105.3944   -13449.429     1574.988    1558.7132     1100.373   -2.4370867    2.8986238     2.274039    2.3964807    3.1148293    7.7853491 
   70000          140    1066.9545    5.9322766    1558.2229    1558.7538    1100.5133   -16.775579     2.898649    2.3642643    2.5108481    3.1675481    8.0426605 
   72000          144     1172.439    21112.352    1533.7363    1558.8075    1101.3264   -4.6427739    2.8986818    2.3185508     2.542628    3.1879153    8.0490941 
   74000          148    1155.0145   -3604.6314    1568.4762     1558.847    1101.8292    -5.108428    2.8987066     2.382003    2.7031819    3.1397381    8.2249231 
   76000          152    871.65659   -12707.223    1566.1935    1558.7868    1101.0983   -13.735051    2.8986693    2.3842412    2.6625386    3.3863743    8.4331541 
   78000          156    1118.5659    16011.892    1537.5535    1558.7141    1100.2431    -5.787063     2.898624     2.433982    2.7144235    3.3228198    8.4712252 
   80000          160    1137.9797   -2195.2468    1570.5299    1558.7005    1100.0664   -3.4127017    2.8986158    2.5267127    2.8413916    3.3187794    8.6868836 
   82000          164    1116.7888   -3168.1997    1574.8942    1558.7366    1100.6999   -6.3013444    2.8986381    2.5294076    3.0313235    3.6353159     9.196047 
   84000          168    1058.7101    596.60178    1554.1197    1558.7745    1101.0905   -5.6478594    2.8986619    2.5439266    3.1250817    3.4416819    9.1106902 
   86000          172    1050.0101    8809.8607    1551.5509    1558.7784    1100.8863    1.0648067    2.8986644    2.7195675    3.3216555    3.6109201    9.6521432 
   88000          176    905.28784   -11284.649    1575.6587    1558.7608    1100.5817   -3.0400254    2.8986535    2.9309967     3.495734    3.6938715    10.120602 
   90000          180    1014.5855    -6702.476     1559.243    1558.6988    1099.7971   -9.5547203    2.8986148    2.9076689    3.5436084    3.6291544    10.080432 
   92000          184    1056.5599     15850.28     1542.488    1558.6331    1098.9408   -7.6713339     2.898574    2.9839934     3.503462    3.7469835    10.234439 
   94000          188    1109.9996    5289.2534    1555.3434    1558.6513    1099.1245   -2.9839629    2.8985848    2.8698698    3.4662371    3.8144194    10.150526 
   96000          192    1145.3393    14543.341    1538.5148    1558.6772    1099.4348   -3.3051003     2.898601    2.9889331    3.5999375    3.9567309    10.545602 
   98000          196    1103.0216    8206.3087    1554.6986    1558.7141    1099.9247   -4.3221067     2.898624    3.0170484    3.6055433    3.8960248    10.518617 
----FINISHED: 6/7 ---- T=1100 -----
  100000          200    1208.5058     35124.05    1530.0666    1558.7615     1100.672   -5.3993542    2.8986535    3.1465619    3.4655735    3.9443922    10.556528 
Loop time of 20.6079 on 2 procs for 100000 steps with 129 atoms

Performance: 838.512 ns/day, 0.029 hours/ns, 4852.498 timesteps/s
99.0% CPU use with 2 MPI tasks x 1 OpenMP threads

MPI task timing breakdown:
Section |  min time  |  avg time  |  max time  |%varavg| %total
---------------------------------------------------------------
Pair    | 14.948     | 15.271     | 15.594     |   8.3 | 74.10
Neigh   | 0.092552   | 0.095067   | 0.097583   |   0.8 |  0.46
Comm    | 2.1308     | 2.4611     | 2.7915     |  21.1 | 11.94
Output  | 0.92836    | 0.93673    | 0.9451     |   0.9 |  4.55
Modify  | 1.5823     | 1.5964     | 1.6105     |   1.1 |  7.75
Other   |            | 0.2476     |            |       |  1.20

Nlocal:    64.5 ave 65 max 64 min
Histogram: 1 0 0 0 0 0 0 0 0 1
Nghost:    1081.5 ave 1082 max 1081 min
Histogram: 1 0 0 0 0 0 0 0 0 1
Neighs:    4503 ave 4717 max 4289 min
Histogram: 1 0 0 0 0 0 0 0 0 1

Total # of neighbors = 9006
Ave neighs/atom = 69.814
Neighbor list builds = 787
Dangerous builds = 0
System init for write_data ...
Setting up Verlet run ...
  Unit style    : metal
  Current step  : 100000
  Time step     : 0.002
Per MPI rank memory allocation (min/avg/max) = 13.13 | 13.13 | 13.13 Mbytes
Step Temp PotEng TotEng Press Volume Lx 
  100000         1200   -491.25187   -471.39751    35025.808    1530.0666    11.523121 
  102000     1093.536   -491.40099   -473.30811   -9891.1479    1575.4974    11.636058 
  104000    1162.4372   -488.62843   -469.39556   -23746.443     1600.837     11.69811 
  106000    1220.5339   -490.83085   -470.63675    -7648.062    1573.5378    11.631232 
  108000    1096.2833   -493.49352   -475.35519    13883.331    1542.3739    11.553934 
  110000    1204.2604   -493.44012   -473.51527     1706.929    1558.3473    11.593683 
  112000    1327.4622   -492.22452   -470.26126     5441.973    1558.3032    11.593573 
  114000    1233.6296   -489.10046   -468.68969   -2291.9627    1573.6358    11.631474 
  116000    1234.3417   -491.91788   -471.49533    4614.2105    1557.6854    11.592041 
  118000    1224.9236   -492.16519   -471.89847   -5976.8626    1568.4978    11.618801 
  120000    1060.6421   -488.32551   -470.77687    7021.5608    1570.1601    11.622904 
  122000    1271.9741   -489.28012   -468.23493    1246.8887    1572.0715    11.627618 
  124000    1244.4754   -490.81906   -470.22884   -7412.7793    1576.0622    11.637449 
  126000     1334.983   -492.15249    -470.0648     -1431.77    1563.4346    11.606285 
  128000    1083.7888   -494.34828   -476.41667     1984.242    1551.4866    11.576644 
  130000    1155.8876   -492.76706   -473.64256   -21707.846    1586.0463    11.661971 
  132000    1181.1827   -491.27762    -471.7346    19653.882    1541.4624    11.551658 
  134000    1093.5974    -490.5226    -472.4287   -14992.074    1584.3948    11.657922 
  136000    1199.5866   -489.91421   -470.06669    2450.2014    1566.2895    11.613345 
  138000     1266.548   -491.89265   -470.93723   -1291.9759    1564.9435    11.610018 
  140000    1073.4133   -492.05342   -474.29347    2296.3665    1557.4155    11.591372 
  142000    1126.7544   -490.44746   -471.80497   -1841.4941    1574.0944    11.632603 
  144000     1275.905   -492.14222     -471.032    5998.1376    1554.8882    11.585098 
  146000    1075.2777   -491.58067   -473.78988   -12611.077     1575.487    11.636033 
  148000    1223.2264   -494.14009   -473.90144      9390.68    1544.0778    11.558187 
  150000    1097.4216   -493.54458   -475.38741   -7301.6992    1562.3497      11.6036 
Loop time of 9.93689 on 2 procs for 50000 steps with 129 atoms

Performance: 869.487 ns/day, 0.028 hours/ns, 5031.756 timesteps/s
99.0% CPU use with 2 MPI tasks x 1 OpenMP threads

MPI task timing breakdown:
Section |  min time  |  avg time  |  max time  |%varavg| %total
---------------------------------------------------------------
Pair    | 7.3924     | 7.5773     | 7.7621     |   6.7 | 76.25
Neigh   | 0.071768   | 0.07399    | 0.076212   |   0.8 |  0.74
Comm    | 1.0588     | 1.2477     | 1.4367     |  16.9 | 12.56
Output  | 0.46315    | 0.46727    | 0.47138    |   0.6 |  4.70
Modify  | 0.44913    | 0.45548    | 0.46183    |   0.9 |  4.58
Other   |            | 0.1152     |            |       |  1.16

Nlocal:    64.5 ave 65 max 64 min
Histogram: 1 0 0 0 0 0 0 0 0 1
Nghost:    1077.5 ave 1078 max 1077 min
Histogram: 1 0 0 0 0 0 0 0 0 1
Neighs:    4455 ave 4599 max 4311 min
Histogram: 1 0 0 0 0 0 0 0 0 1

Total # of neighbors = 8910
Ave neighs/atom = 69.0698
Neighbor list builds = 616
Dangerous builds = 0
----STARTING----
Setting up Verlet run ...
  Unit style    : metal
  Current step  : 0
  Time step     : 0.002
Per MPI rank memory allocation (min/avg/max) = 14.75 | 14.75 | 14.75 Mbytes
Step v_my_time Temp Press Volume f_ave_vol f_ave_temp f_ave_press f_ave_latcon c_msdFe_7[1] c_msdFe_7[2] c_msdFe_7[3] c_msdFe_7[4] 
       0            0    1097.4216   -7301.6992    1562.3497            0            0            0            0            0 2.1558472e-33            0 2.1558472e-33 
    2000            4    1192.5356    8062.7147    1554.7612    1563.8057    1175.9481    65.358631    2.9017873  0.058815469  0.062738492   0.09015941   0.21171337 
    4000            8    1187.2098   -11293.598    1582.7396    1564.3728    1178.5278   -100.82517    2.9021271   0.20714112    0.1375138   0.22986917   0.57452409 
    6000           12    1207.3053    5476.9118    1555.5077    1564.1668    1176.4907   -44.890934    2.9020047   0.29654026   0.27497768   0.31212051   0.88363845 
    8000           16    1147.1349   -13294.261    1584.4777    1563.8735    1172.4164   -38.204406    2.9018195   0.30658177   0.42238289   0.29615986    1.0251245 
   10000           20    1329.6873    11045.341    1545.5203    1564.2631    1177.5956    3.5278371    2.9020621   0.36287708   0.46707954   0.40719469    1.2371513 
   12000           24    1173.8815   -5934.0079    1575.4032    1565.2322    1187.0373     -7.33485    2.9026591   0.45421146   0.53454966   0.56960913    1.5583702 
   14000           28    1468.4365   -1387.8905    1571.1934    1565.7744     1193.001   -1.5304342    2.9029931    0.5150795    0.6472705   0.70622538    1.8685754 
   16000           32    1344.4007   -33481.442    1612.3884     1566.371    1198.6143   -9.5265726    2.9033597   0.57792816   0.80698104   0.82359062    2.2084998 
   18000           36    1440.0385   -253.45693    1566.3399    1566.8607      1203.18    2.3979282    2.9036622   0.55149919   0.72507282   0.83627593    2.1128479 
   20000           40     1195.077   -25379.413    1596.6929    1567.0721    1204.6484   -24.227181    2.9037926    0.7173152   0.97146954   0.93888866    2.6276734 
   22000           44    1316.7893     13406.61    1543.7462    1567.1919    1206.7198  -0.70965157    2.9038654   0.68644822   0.92852373   0.91415218    2.5291241 
   24000           48    1276.8894    2502.2161    1569.6876    1567.2367    1207.6453   -11.704993    2.9038946   0.75363051   0.86716712   0.94320643    2.5640041 
   26000           52    1201.6699   -3263.0576    1561.6361    1567.1912    1207.3972    -2.497571    2.9038666   0.84513652    1.0507833    1.1601465    3.0560663 
   28000           56    1127.4961    21098.074    1535.5676    1566.8372     1203.867    31.218652    2.9036473   0.79189883    1.0602918   0.99402135     2.846212 
   30000           60    1225.6696    4328.3162    1563.3763      1566.73    1201.8265   -11.166319    2.9035808    0.9660228    1.1803049    1.2685393     3.414867 
   32000           64    1173.5705   -8666.9721    1582.4979      1566.51    1200.0758  -0.18531172    2.9034459    1.0098316    1.3067626    1.2886231    3.6052174 
   34000           68    1239.5545    28800.551    1527.3203    1566.4225    1199.4113   -2.1217739    2.9033914    1.4599116    1.4491272    1.2720285    4.1810672 
   36000           72     1132.897     -6085.59    1567.8046    1566.3636    1198.2737   -15.582124     2.903354     1.692555    1.4657351    1.4140853    4.5723755 
   38000           76     1039.267    23.838262    1555.7738    1566.2362    1197.2641    4.4189023    2.9032756    1.7071348     1.488788    1.4319925    4.6279153 
   40000           80    1125.8614    7043.0625    1549.7424    1566.1343    1195.8777    7.2480549    2.9032118    1.7590905    1.6164344    1.4897433    4.8652682 
   42000           84    1134.7832    3980.3303    1559.1357    1566.0958    1195.5666   0.21006874     2.903189    1.7942996    1.6626994    1.5763729    5.0333719 
   44000           88    1319.1685   -12976.606    1579.9391    1566.0676    1195.0954    7.5332447     2.903172     1.994888    1.8965402    1.6747839    5.5662121 
   46000           92    1318.6215   -4415.5286    1573.5994    1566.0199     1194.125   -4.5649807    2.9031426    2.0178407    1.8615739    1.7772466    5.6566613 
   48000           96    1110.1298    7276.1133    1557.3178    1565.9832    1193.8448    4.4945288    2.9031199    1.9849609    1.9804757     1.765923    5.7313596 
   50000          100    1226.3034    11133.577    1546.3095    1565.8634    1192.6036   -5.9220946    2.9030465    2.1239772    2.0350206    1.9205856    6.0795833 
   52000          104    1066.3068   -4191.7073    1559.9951    1565.7711    1191.5898   -16.859118    2.9029898    2.1293353    2.4432007    2.1714832    6.7440192 
   54000          108    1226.9576   -983.25737    1567.0977    1565.7088    1190.9209    4.4580814    2.9029504    2.0638598    2.4536145    2.2318494    6.7493237 
   56000          112     1246.431    8266.1765    1561.1321    1565.7013    1190.5726   -10.860688    2.9029462    2.0866996    2.3048349     2.206732    6.5982666 
   58000          116    1299.2607   -5834.0752    1579.2374    1565.7177    1191.1261   -2.7905484    2.9029562     1.961641    2.5733514    2.3819742    6.9169665 
   60000          120    1325.3278    13409.165    1555.2431    1565.8802    1192.8638   -2.2156357    2.9030565    2.0493805     2.509293    2.1765248    6.7351983 
   62000          124    1140.4972    2103.8229    1567.1078     1565.946    1193.2972   -2.7259135    2.9030966    2.4958569    2.7256497    2.2652398    7.4867465 
   64000          128    1157.7024    10822.495    1560.8324     1566.051    1194.5681   -12.945329    2.9031614      2.56991    2.6670827    2.4438176    7.6808102 
   66000          132    1144.5729    3718.8541    1556.8038    1566.0784    1194.9948     -3.06107    2.9031789    2.7366429    2.6650966    2.4184129    7.8201524 
   68000          136    1172.6872    6592.6788    1554.9609    1566.0764    1194.7979   -9.3912986    2.9031773    2.6590141    2.7279347    2.4369432     7.823892 
   70000          140    1229.4672    -10626.79    1580.1676    1565.9958    1194.0029     2.492381    2.9031271    2.8009428    2.6993714    2.5178745    8.0181886 
   72000          144    1296.7938   -9190.8315    1573.6405    1566.0906    1194.7009   -9.5461213    2.9031859    2.9635551    2.8099951    2.6239916    8.3975418 
   74000          148    1269.6938   -6212.2994    1567.1714    1566.0715    1194.8439    3.4626381    2.9031738    3.1018704    2.7405172    2.7429573    8.5853449 
   76000          152    1074.9231    5054.4074    1552.4172    1566.0781    1194.7537   -13.918956    2.9031778    3.1571674    2.7546644    2.7357693    8.6476012 
   78000          156    1024.3032    55.204789    1554.9792    1566.0062    1194.3318  -0.19058858    2.9031336    3.1956639    2.8931641    2.8181504    8.9069784 
   80000          160    1178.5185   -1157.8177    1566.9155    1565.9618    1193.5225   -7.9633845    2.9031061    3.1080923    3.0244897    2.6777346    8.8103165 
   82000          164    1142.1484   -9654.8387    1581.0243     1565.905    1192.9895   -3.6538039    2.9030714     3.080655    2.9853298    2.9078575    8.9738422 
   84000          168     1296.289    26604.738    1536.2681     1565.895    1192.8037   -2.2987469    2.9030651    3.0445085    3.1083434    3.0483938    9.2012456 
   86000          172    1195.7388   -18925.909     1577.672     1565.873     1192.644   -2.7945706     2.903051    2.9901928    3.2712028    3.0411021    9.3024977 
   88000          176    1234.8569   -10498.192    1594.6538    1565.9204    1193.1754    -5.540835    2.9030806    3.3126625    3.5438125    3.1018396    9.9583147 
   90000          180    1312.3798    971.94336    1567.2093    1565.9711    1194.0438    0.8023855    2.9031114     3.386521    3.4481941    3.0431912    9.8779063 
   92000          184    1247.9346   -824.02582    1556.8218    1566.0201    1194.3318   -11.541423    2.9031418    3.5755439    3.4664397     3.187952    10.229936 
   94000          188    1078.9521   -12238.044    1581.6389    1565.9686    1193.8454   -4.2836033    2.9031099    3.6515245    3.4057137    3.3000844    10.357323 
   96000          192     1117.004    6470.5412    1553.5363     1565.938    1193.9099    3.6364351    2.9030906    3.5640122    3.6257274    3.2202013    10.409941 
   98000          196      1290.54   -5485.1597    1571.1147    1565.9474    1193.9585   -2.6093935    2.9030962    3.7682143    3.5745295     3.404816     10.74756 
----FINISHED: 7/7 ---- T=1200 -----
  100000          200    1192.8188   -11203.783    1579.7499    1565.9276    1193.8469    3.8630919    2.9030843    4.0660561    3.9956612     3.781164    11.842881 
Loop time of 20.845 on 2 procs for 100000 steps with 129 atoms

Performance: 828.976 ns/day, 0.029 hours/ns, 4797.313 timesteps/s
99.1% CPU use with 2 MPI tasks x 1 OpenMP threads

MPI task timing breakdown:
Section |  min time  |  avg time  |  max time  |%varavg| %total
---------------------------------------------------------------
Pair    | 14.822     | 15.224     | 15.627     |  10.3 | 73.03
Neigh   | 0.13684    | 0.14109    | 0.14534    |   1.1 |  0.68
Comm    | 2.1394     | 2.5511     | 2.9628     |  25.8 | 12.24
Output  | 1.0804     | 1.0887     | 1.097      |   0.8 |  5.22
Modify  | 1.5858     | 1.5992     | 1.6126     |   1.1 |  7.67
Other   |            | 0.2408     |            |       |  1.15

Nlocal:    64.5 ave 65 max 64 min
Histogram: 1 0 0 0 0 0 0 0 0 1
Nghost:    1081.5 ave 1082 max 1081 min
Histogram: 1 0 0 0 0 0 0 0 0 1
Neighs:    4338 ave 4563 max 4113 min
Histogram: 1 0 0 0 0 0 0 0 0 1

Total # of neighbors = 8676
Ave neighs/atom = 67.2558
Neighbor list builds = 1180
Dangerous builds = 0
System init for write_data ...
Total wall time: 0:03:34
