LAMMPS (7 Aug 2019)
OMP_NUM_THREADS environment is not set. Defaulting to 1 thread. (../comm.cpp:93)
  using 1 OpenMP thread(s) per MPI task
Reading data file ...
  orthogonal box = (0 0 0) to (11.4212 11.4212 11.4212)
  1 by 2 by 2 MPI processor grid
  reading atoms ...
  129 atoms
  reading velocities ...
  129 velocities
  read_data CPU = 0.00112987 secs
129 atoms in group iron
129 atoms in group Fe
Neighbor list info ...
  update every 1 steps, delay 10 steps, check yes
  max neighbors/atom: 2000, page size: 100000
  master list distance cutoff = 7.3
  ghost atom cutoff = 7.3
  binsize = 3.65, bins = 4 4 4
  1 neighbor lists, perpetual/occasional/extra = 1 0 0
  (1) pair eam/fs, perpetual
      attributes: half, newton on
      pair build: half/bin/atomonly/newton
      stencil: half/bin/3d/newton
      bin: standard
Setting up Verlet run ...
  Unit style    : metal
  Current step  : 0
  Time step     : 0.002
Per MPI rank memory allocation (min/avg/max) = 2.982 | 3.075 | 3.356 Mbytes
Step Temp PotEng TotEng Press Volume Lx 
       0          600   -513.59825   -503.67107    20744.569    1489.8248      11.4212 
    2000    548.26367   -502.99007   -493.91889    7813.7613    1520.0312    11.497873 
    4000    614.40348   -504.65934   -494.49385    4154.7897    1522.1937    11.503323 
    6000    571.28029   -502.87946   -493.42746   -6535.5315    1533.3499    11.531357 
    8000    555.94887      -501.93   -492.73166   -1592.9151    1532.5458    11.529341 
   10000    618.44569   -503.87281   -493.64045   -5312.5742    1532.1078    11.528243 
   12000     573.6175   -503.29742   -493.80675    8432.3801    1519.4093    11.496305 
   14000    619.57766    -502.2627    -492.0116    2535.9558    1527.4143    11.516459 
   16000    585.38757   -504.72231    -495.0369   -18341.849    1542.6042    11.554509 
   18000     545.0832   -503.70716    -494.6886   -7588.2491    1534.9781    11.535437 
   20000    603.26754   -502.91061   -492.92937   -286.74874    1528.2507     11.51856 
   22000    585.08428   -502.76331   -493.08291   -5266.1367    1533.9193    11.532784 
   24000    577.18767   -504.25852   -494.70877   -9958.5455    1538.7225     11.54481 
   26000     633.4376   -503.72402   -493.24361    -10565.32    1537.2351    11.541088 
   28000    681.98223   -503.44549   -492.16189    1653.3256    1527.1892    11.515893 
   30000    552.73834   -502.83908   -493.69386    1415.2872    1525.3884    11.511365 
   32000    567.00513   -504.96963   -495.58836    6074.4924    1516.9476    11.490093 
   34000    573.19196    -504.4078   -494.92417    10121.694    1514.4527     11.48379 
   36000    644.81156   -502.54563   -491.87703   -174.91094    1528.0953     11.51817 
   38000    625.72063   -503.68156   -493.32883   -9435.2164    1535.9125    11.537778 
   40000    506.50715   -503.00829   -494.62798   -4601.4981    1531.9737    11.527906 
   42000     588.5871   -503.17379   -493.43544    1982.2358    1526.8652    11.515078 
   44000    545.75956   -503.14068   -494.11092   -3831.2662    1530.1085    11.523226 
   46000    649.87316   -503.71807   -492.96573    4440.3116    1522.0655       11.503 
   48000    607.12875   -503.28338   -493.23826   -5351.5724    1533.5998    11.531984 
   50000    563.56334   -504.13191   -494.80759   -8908.0076     1534.111    11.533265 
Loop time of 7.32185 on 4 procs for 50000 steps with 129 atoms

Performance: 1180.029 ns/day, 0.020 hours/ns, 6828.871 timesteps/s
98.1% CPU use with 4 MPI tasks x 1 OpenMP threads

MPI task timing breakdown:
Section |  min time  |  avg time  |  max time  |%varavg| %total
---------------------------------------------------------------
Pair    | 4.4407     | 4.7778     | 5.0498     |  10.5 | 65.25
Neigh   | 0.0020859  | 0.0021548  | 0.0022726  |   0.2 |  0.03
Comm    | 1.5923     | 1.8709     | 2.2109     |  17.1 | 25.55
Output  | 0.00033736 | 0.00038648 | 0.00051069 |   0.0 |  0.01
Modify  | 0.5212     | 0.53034    | 0.53936    |   1.1 |  7.24
Other   |            | 0.1403     |            |       |  1.92

Nlocal:    32.25 ave 35 max 30 min
Histogram: 1 0 1 0 0 0 1 0 0 1
Nghost:    1000.5 ave 1011 max 989 min
Histogram: 1 0 0 1 0 0 0 1 0 1
Neighs:    2262.25 ave 2421 max 1941 min
Histogram: 1 0 0 0 0 0 0 1 0 2

Total # of neighbors = 9049
Ave neighs/atom = 70.1473
Neighbor list builds = 29
Dangerous builds = 0
----STARTING----
Setting up Verlet run ...
  Unit style    : metal
  Current step  : 0
  Time step     : 0.002
Per MPI rank memory allocation (min/avg/max) = 4.982 | 4.982 | 4.982 Mbytes
Step v_my_time Temp Press Volume f_ave_vol f_ave_temp f_ave_press f_ave_latcon c_msdFe_1[1] c_msdFe_1[2] c_msdFe_1[3] c_msdFe_1[4] 
       0            0    563.56334   -8908.0076     1534.111            0            0            0            0  9.71027e-33 7.9127354e-33 4.036988e-33 2.1659994e-32 
    2000            4    665.65922    5574.7653    1525.5116    1527.9277    607.38043   -219.07032    2.8794236  0.043843323  0.048569127  0.049171863   0.14158431 
    4000            8    651.79513   -696.89698    1528.1081    1528.4316    614.20014    -151.9285    2.8797418   0.12861226  0.088498903  0.086496442   0.30360761 
    6000           12    531.17975   -5916.7739    1533.7239    1528.4652    613.55227   -42.303134    2.8797602   0.12825989  0.084539029  0.088685831   0.30148475 
    8000           16    583.08473    10422.409    1517.1022    1528.4227    611.89964   -66.596754    2.8797352   0.14118955  0.093672928   0.10299199   0.33785446 
   10000           20    542.65563    7307.5465    1519.8874    1528.2281    610.76111   -25.020573    2.8796133   0.20753969   0.10498058   0.12058412   0.43310439 
   12000           24    555.98111   -3780.7522    1527.6973     1527.876    605.77176   -34.136923    2.8793923   0.26686355   0.13991945   0.13576147   0.54254446 
   14000           28    567.91702   -7906.7459    1534.1353    1527.7033    601.74566    -35.82087    2.8792835   0.32518951   0.13762381   0.12548243   0.58829575 
   16000           32    617.24506   -5193.6655    1534.6985    1527.6456     601.4253    -36.41551    2.8792481   0.26638056    0.1706016   0.12675096   0.56373312 
   18000           36    652.67313    574.53415    1527.5056    1527.5955    600.78329   -14.397685    2.8792166   0.27049287   0.14568792   0.14345579   0.55963659 
   20000           40    618.97114   -2141.3701    1529.6903    1527.5161    600.49996   -21.163137    2.8791678   0.26795408   0.17462919   0.24826045   0.69084373 
   22000           44    502.40505   -8332.5193    1533.3927    1527.4104    598.39194   -7.2377528    2.8791011   0.27195039   0.23811706   0.25008621   0.76015366 
   24000           48    598.96414   -1607.0421    1526.5298     1527.372    597.48114    -23.91346    2.8790777   0.27199714   0.18673273   0.23954598   0.69827585 
   26000           52    575.24811    5347.6052    1524.8338    1527.3804    598.04868   -14.922817    2.8790829   0.28049238   0.17942683   0.23556956   0.69548877 
   28000           56    616.18157    13620.124    1516.4341     1527.465    599.64202   -16.107581     2.879136   0.34068792   0.19728261   0.25432829   0.79229882 
   30000           60    591.82443    9538.5452    1519.1678    1527.4491    599.34854   -23.399702    2.8791261   0.31466901   0.26488325   0.27158183   0.85113409 
   32000           64    635.50716    21176.864    1507.3583    1527.4655    599.18665   -34.359018    2.8791361   0.30203631   0.25158899   0.25552792   0.80915322 
   34000           68    480.70573    5597.9486    1517.5749    1527.4281    598.44961   -17.102288    2.8791121   0.31608713   0.21337615   0.25061865   0.78008192 
   36000           72    576.29143      3197.48    1522.9049    1527.3957    597.41513   -19.705332    2.8790916   0.34488448    0.2145048   0.26707757   0.82646685 
   38000           76    528.14037    3336.7104    1523.1137    1527.3646     596.5002   -12.482338     2.879072   0.34395017    0.1979623   0.29409734   0.83600981 
   40000           80    563.81445   -755.96198    1528.7222    1527.3603     596.1368   -16.039398    2.8790687   0.34340883   0.21168102   0.36809651   0.92318637 
   42000           84    589.41793   -14935.439    1547.1931    1527.3526    596.11497   -8.3808065     2.879064   0.33778072   0.19834762   0.36867991   0.90480825 
   44000           88    615.61859   -5814.0994    1530.4752    1527.3605    596.08721   -4.7243945    2.8790686   0.33007792    0.2013661   0.37343897   0.90488299 
   46000           92    578.04579    4801.3643    1520.2055    1527.3173    595.37987   -12.111356    2.8790418   0.33847385   0.20564797   0.37664917   0.92077099 
   48000           96     569.6697   -4446.2901    1529.0813    1527.2728    594.76502   -6.6656057    2.8790136   0.33703953    0.2051087   0.38034018   0.92248841 
   50000          100    616.03648   -7210.1901    1538.3798    1527.2283    594.37646   -1.0849337    2.8789854   0.35523651   0.26695284   0.36150262   0.98369197 
   52000          104    664.12988   -9526.9794    1536.3874    1527.2315    594.42751   -1.1274527    2.8789874   0.36311608   0.26264262   0.35382241   0.97958111 
   54000          108    606.42626   -5017.5307    1533.7431     1527.204    593.39837    -3.045256    2.8789703   0.34313484   0.25618212   0.36239576   0.96171271 
   56000          112    607.92216    12015.137    1512.7152    1527.1851    593.42229    -2.709814     2.878958   0.37335624   0.31275462   0.36617613     1.052287 
   58000          116    522.50416   -4773.3608    1528.9411    1527.1646    593.32522   -4.9662657    2.8789453   0.39227609   0.35466212   0.39940237    1.1463406 
   60000          120    554.42047   -6192.5848    1530.9329    1527.1328    592.85806   -4.7523572    2.8789248   0.42864386   0.42231756   0.50384762     1.354809 
   62000          124     570.6808   -17450.325    1544.0671    1527.1038    592.43989    -2.785572    2.8789065   0.44291241   0.39228786   0.49650684    1.3317071 
   64000          128    577.54515   -6975.0418    1530.4243    1527.0931    592.45928    3.5441327    2.8788996   0.45107406   0.42189711   0.51395892    1.3869301 
   66000          132    628.29942   -279.64121    1530.8621     1527.118    593.19598     2.790361    2.8789151   0.43652549   0.43716567   0.54623205    1.4199232 
   68000          136     574.4755    10948.836    1518.6875    1527.1583    593.81347     3.503793    2.8789405   0.45419546   0.45247443   0.54591624    1.4525861 
   70000          140    573.58267    13174.646    1512.6576    1527.1736     594.0027   -0.2049756    2.8789501   0.46854773    0.4431025   0.54929627    1.4609465 
   72000          144    683.40512    10178.655    1520.9432    1527.1951    594.39904    3.3780706    2.8789638   0.43689505   0.45375228   0.54377473    1.4344221 
   74000          148    610.38101    8596.2254    1519.5002    1527.2241     594.6939  -0.08914141     2.878982   0.47514699   0.45702077   0.56668196    1.4988497 
   76000          152    581.95848    10415.507    1515.1639    1527.2481    594.95122    3.0561585    2.8789971   0.49625403   0.47947944   0.55820336    1.5339368 
   78000          156    573.80125    4993.6648     1521.103    1527.2452     594.9412  -0.69519703    2.8789955   0.50535814   0.48900013    0.5566803    1.5510386 
   80000          160    642.23023   -6438.6471    1536.8917    1527.2577    595.26475     1.129636    2.8790033   0.53070477   0.53347279    0.5925533    1.6567309 
   82000          164    600.60029    697.45841    1525.1159    1527.2637    595.45788    4.2426887    2.8790071   0.51107402   0.54149134   0.58513756    1.6377029 
   84000          168    585.58309    5833.1486    1519.3097     1527.282    595.59102 -0.013445412    2.8790185   0.50510733   0.51696983   0.57256117    1.5946383 
   86000          172    514.38786   -3912.0406     1530.268    1527.2994    595.92977  -0.33882875    2.8790295   0.50629818   0.52203253   0.55879192    1.5871226 
   88000          176    518.12578   -13275.913    1543.4936    1527.3089    595.86153  -0.19792049    2.8790353    0.5107038   0.55041872   0.57522923    1.6363517 
   90000          180    610.70408   -7251.4658    1537.7504    1527.2856    595.61635    1.1203178    2.8790206   0.52379684   0.54652147   0.60482904    1.6751474 
   92000          184     598.0565   -6934.9545    1530.5748    1527.2768    595.55416   -1.7878356    2.8790153   0.55148848   0.55425852   0.61842465    1.7241716 
   94000          188    500.49993    3632.4118    1524.7022    1527.2617     595.1749    1.9016614    2.8790058   0.56771854   0.56099251   0.59571653    1.7244276 
   96000          192    607.17245    2871.9231    1525.6601     1527.274    595.32634  -0.49344024    2.8790138   0.57408252    0.5577611   0.59454245    1.7263861 
   98000          196    540.19166    7263.7977    1521.5516    1527.2936    595.73176   -1.5844456    2.8790262   0.54169719   0.52471714   0.56959909    1.6360134 
----FINISHED: 1/40 ---- T=600 -----
  100000          200    554.12022    14290.378    1514.5249     1527.301    595.92608    0.6738924     2.879031   0.58543451   0.56859434   0.59959159    1.7536204 
Loop time of 15.2425 on 4 procs for 100000 steps with 129 atoms

Performance: 1133.672 ns/day, 0.021 hours/ns, 6560.600 timesteps/s
98.7% CPU use with 4 MPI tasks x 1 OpenMP threads

MPI task timing breakdown:
Section |  min time  |  avg time  |  max time  |%varavg| %total
---------------------------------------------------------------
Pair    | 8.7395     | 9.4017     | 9.8426     |  13.6 | 61.68
Neigh   | 0.0069492  | 0.0072899  | 0.007618   |   0.3 |  0.05
Comm    | 3.1912     | 3.6196     | 4.262      |  21.2 | 23.75
Output  | 0.095571   | 0.10622    | 0.12592    |   3.6 |  0.70
Modify  | 1.8175     | 1.8242     | 1.8397     |   0.7 | 11.97
Other   |            | 0.2835     |            |       |  1.86

Nlocal:    32.25 ave 34 max 30 min
Histogram: 1 0 1 0 0 0 0 0 0 2
Nghost:    948 ave 975 max 926 min
Histogram: 1 0 0 1 1 0 0 0 0 1
Neighs:    2272.25 ave 2568 max 2073 min
Histogram: 1 0 1 1 0 0 0 0 0 1

Total # of neighbors = 9089
Ave neighs/atom = 70.4574
Neighbor list builds = 100
Dangerous builds = 0
System init for write_data ...
Setting up Verlet run ...
  Unit style    : metal
  Current step  : 100000
  Time step     : 0.002
Per MPI rank memory allocation (min/avg/max) = 4.983 | 4.983 | 4.983 Mbytes
Step Temp PotEng TotEng Press Volume Lx 
  100000          600   -502.75433   -492.82715    14825.729    1514.5249    11.483972 
  102000    602.49684   -502.45504   -492.48655    -77.13466     1528.634    11.519523 
  104000    580.82684   -503.32048   -493.71053     10724.54    1517.1895    11.490703 
  106000    622.18246   -504.15869    -493.8645    16898.444    1510.8266    11.474617 
  108000    641.94852   -504.33595   -493.71472    14855.474    1512.2027      11.4781 
  110000    658.58713   -503.33174   -492.43522    7087.7114    1521.4486    11.501446 
  112000    567.20767   -503.20596   -493.82134    -5511.638    1534.4985    11.534236 
  114000    586.00211   -503.52036   -493.82478    -8949.388    1535.8043    11.537507 
  116000    636.51941   -502.11401   -491.58261   -3658.9762    1535.2428      11.5361 
  118000    574.59792   -501.52292   -492.01603    2462.6067     1526.051    11.513031 
  120000    566.15373   -504.13444   -494.76726    3988.1448    1521.9422    11.502689 
  122000    669.39495   -504.25044   -493.17511   -3125.5368    1529.8973    11.522696 
  124000    602.59606   -503.17807   -493.20793    8074.8973    1522.1589    11.503235 
  126000    605.75069   -504.16237   -494.14005    24133.243    1502.6857     11.45397 
  128000    547.13645    -505.4953   -496.44277    5343.4925    1518.3376    11.493601 
  130000    553.00808   -503.93759    -494.7879    4904.7501    1520.2704    11.498476 
  132000    509.43701   -502.99056   -494.56177   -13812.952    1539.3312    11.546332 
  134000    598.15901   -502.93257   -493.03585    4615.8533    1521.4237    11.501383 
  136000    634.21764   -503.98257   -493.48925   -5162.5162    1531.3837    11.526426 
  138000    579.26542   -503.10714   -493.52302   -9002.5688    1536.5959    11.539489 
  140000    594.29941   -504.62166    -494.7888     2859.053    1520.9414    11.500167 
  142000    575.56173   -504.00279   -494.47995   -1699.1945    1526.5491    11.514284 
  144000    625.53338   -503.13493    -492.7853    15106.461    1513.1681    11.480542 
  146000     678.0718    -503.6226    -492.4037    8167.1015    1518.4263    11.493825 
  148000    570.50759   -503.01797   -493.57875   -9387.0066    1540.5665    11.549419 
  150000    557.92295   -504.42216   -495.19116   -5033.1704    1529.8122    11.522482 
Loop time of 7.15366 on 4 procs for 50000 steps with 129 atoms

Performance: 1207.773 ns/day, 0.020 hours/ns, 6989.425 timesteps/s
98.7% CPU use with 4 MPI tasks x 1 OpenMP threads

MPI task timing breakdown:
Section |  min time  |  avg time  |  max time  |%varavg| %total
---------------------------------------------------------------
Pair    | 4.4088     | 4.6597     | 4.8522     |   8.0 | 65.14
Neigh   | 0.0035155  | 0.0037125  | 0.0039046  |   0.2 |  0.05
Comm    | 1.5999     | 1.7874     | 2.03       |  12.5 | 24.99
Output  | 0.048052   | 0.053276   | 0.063019   |   2.5 |  0.74
Modify  | 0.50902    | 0.51218    | 0.51834    |   0.5 |  7.16
Other   |            | 0.1375     |            |       |  1.92

Nlocal:    32.25 ave 36 max 29 min
Histogram: 1 0 0 0 2 0 0 0 0 1
Nghost:    942.5 ave 963 max 927 min
Histogram: 1 0 0 2 0 0 0 0 0 1
Neighs:    2236.75 ave 2643 max 1846 min
Histogram: 1 0 1 0 0 0 1 0 0 1

Total # of neighbors = 8947
Ave neighs/atom = 69.3566
Neighbor list builds = 51
Dangerous builds = 0
----STARTING----
Setting up Verlet run ...
  Unit style    : metal
  Current step  : 0
  Time step     : 0.002
Per MPI rank memory allocation (min/avg/max) = 6.609 | 6.609 | 6.609 Mbytes
Step v_my_time Temp Press Volume f_ave_vol f_ave_temp f_ave_press f_ave_latcon c_msdFe_1[1] c_msdFe_1[2] c_msdFe_1[3] c_msdFe_1[4] 
       0            0    557.92295   -5033.1704    1529.8122            0            0            0            0   0.96880621    1.0479528    1.1227623    3.1395213 
    2000            4    562.42619    7482.2392    1519.6471    1526.0806    577.99944   -10.635625     2.878255    1.0748445    1.0101737    1.0878856    3.1729038 
    4000            8    623.36853    -4201.502    1532.7871    1526.4525     582.6262    56.591967    2.8784967    1.0560933    1.0036748    1.1613185    3.2210865 
    6000           12    575.79869    2752.4788    1524.3947    1526.7129    584.66339    51.741732     2.878657    1.0709613    1.0089026    1.1122301     3.192094 
    8000           16    570.53355    25650.084    1501.0792    1526.8594    585.37904    6.7188415    2.8787493    1.0482995    1.0218113    1.1415995    3.2117103 
   10000           20    567.12948    15967.985    1508.8304     1527.072     588.5987     19.38709    2.8788836    1.0246671    1.0075881     1.122848    3.1551032 
   12000           24    623.97822    888.05439    1527.3709    1527.2645    591.72852    9.9861842    2.8790032    1.0925292    1.0045082    1.0554372    3.1524746 
   14000           28    599.11492    6524.8622    1522.3187      1527.48    596.60151   -13.496995    2.8791397    1.0948617    1.0242965    1.1982051    3.3173633 
   16000           32    636.74896    -19527.51    1549.7871     1527.525    596.99291     11.83477    2.8791686     1.086847    1.0388246    1.1891619    3.3148335 
   18000           36    617.68221   -920.78595    1529.7068    1527.6662     598.1723    15.392571    2.8792575    1.0607055     1.062617    1.1860725     3.309395 
   20000           40    589.62198    -7297.499    1533.7081     1527.702    598.67382    1.8316109      2.87928    1.1005312    1.0706281    1.1121744    3.2833337 
   22000           44    591.10103    8226.9067    1515.7852    1527.5273    596.96047    23.762892    2.8791709    1.0782855    1.0818333    1.1517509    3.3118697 
   24000           48    672.33841    1768.7008    1524.2243    1527.4676    596.26549    12.751515    2.8791336    1.1144428    1.0541754    1.1291716    3.2977899 
   26000           52    599.72275   -13914.351    1541.9845    1527.4622    596.15623    7.5073818    2.8791311    1.1144835     1.069812    1.1587305    3.3430259 
   28000           56    521.85527    3866.5596     1525.874    1527.3337    594.23931    12.748498    2.8790502    1.1003022    1.0768391    1.1668812    3.3440224 
   30000           60    643.86733   -5023.1358    1532.8279    1527.3013    593.97749   -2.9863598    2.8790307    1.1103497    1.0911295    1.1587841    3.3602633 
   32000           64    613.81315    -2263.975    1528.6077    1527.2664    594.11082    4.7541567     2.879009    1.1912425    1.1520813    1.2335172     3.576841 
   34000           68    625.20985    5741.7215    1524.5388    1527.2622     594.3377    2.2124857    2.8790067    1.2059207    1.1490245    1.2824885    3.6374337 
   36000           72    588.83314    4102.3318    1522.7222     1527.221    593.79551   -4.8869184    2.8789811    1.2836441    1.1620527    1.4041081    3.8498049 
   38000           76    614.57794    7478.2169    1517.4429    1527.2211    593.59765   -1.6689069    2.8789808    1.2313144    1.1817936    1.3449768    3.7580848 
   40000           80    643.84137    1026.9553    1528.4849    1527.2114    593.48843   -8.0010566    2.8789746    1.2180047    1.2014763    1.4091923    3.8286733 
   42000           84    644.05871   -14419.886    1541.2181    1527.2685    594.89305  -0.57778591    2.8790105    1.2343901    1.3228289    1.4047815    3.9620005 
   44000           88    560.67424   -6834.6173    1535.8078    1527.3358    595.91277    1.9074477    2.8790529     1.306319    1.2564497    1.3701876    3.9329562 
   46000           92    601.86206   -15930.582    1541.8149    1527.3794    596.27302    4.6182166    2.8790803    1.3607408    1.2667798    1.4283635     4.055884 
   48000           96    635.29898    -6331.261    1535.4267    1527.4097    596.98991    2.0919544    2.8790991    1.2933345     1.240508    1.3955549    3.9293974 
   50000          100    626.39736    1917.6088    1527.9631    1527.4317    597.68321    5.2838851    2.8791128    1.3162699    1.3134126    1.4512851    4.0809677 
   52000          104    588.39103     7412.329    1515.6622    1527.4221    597.80533    6.8118012    2.8791068    1.3579921     1.257865    1.4258944    4.0417515 
   54000          108    618.34963    13284.319     1515.007    1527.4189    597.76458    2.0573452     2.879105    1.2891176     1.344859    1.4064678    4.0404444 
   56000          112    598.71341    17575.839    1509.7007    1527.3811    597.30058   0.88137822    2.8790811     1.373878    1.2899616    1.4274644     4.091304 
   58000          116    583.27594    9670.6635    1517.9654    1527.3561    597.08362 -0.0089478879    2.8790654    1.3440286    1.3015079    1.4510434      4.09658 
   60000          120    519.34128    5618.2534    1517.6936     1527.337    596.54837    8.6923956    2.8790535     1.360538    1.2553092    1.5248452    4.1406924 
   62000          124    623.51366    7004.9144    1523.2517    1527.3571    596.68394    6.4440051    2.8790661    1.3100214    1.3156903    1.4281107    4.0538223 
   64000          128    520.27592   -208.24048    1531.7213    1527.3905    597.44245   0.37428622    2.8790872     1.391938    1.2797417     1.395211    4.0668907 
   66000          132    573.67812    7642.2271    1522.0086    1527.4074    597.70703    3.0036045    2.8790978    1.3973038    1.2788251    1.4479621     4.124091 
   68000          136    659.41436   -10911.267    1538.7417    1527.4367    598.22464   0.76594511    2.8791165    1.4128162    1.2876053    1.4729353    4.1733568 
   70000          140    644.12708   -12218.484    1544.0903    1527.4936    598.91943  -0.09376741    2.8791522    1.3672209    1.3020092     1.440591    4.1098211 
   72000          144    564.42298    4151.8203    1523.3176    1527.5015    599.15658   -3.1308527    2.8791574    1.3581937    1.2792667    1.4645437    4.1020041 
   74000          148    598.20983   -897.83358    1532.3054    1527.5119    599.06299   -4.5749907    2.8791637    1.3502296    1.2625694    1.4582665    4.0710655 
   76000          152     656.8075    9285.8813    1518.4905     1527.522    599.26239    4.9138957      2.87917    1.3222995    1.2624227    1.4357459    4.0204681 
   78000          156    523.33911    9477.8316    1516.5261    1527.5167    599.16057   -1.4348296    2.8791668    1.3240952    1.2305403    1.4901796    4.0448152 
   80000          160    624.26871    2155.5376    1529.2003    1527.5422    599.46201  -0.52636787    2.8791829    1.3818785    1.2233256    1.4379814    4.0431856 
   82000          164    661.91394    5343.1437    1521.2514    1527.5585    599.91443     0.710457    2.8791931    1.3336395    1.2595387    1.4803301    4.0735083 
   84000          168    627.51775    9331.5202    1518.0777    1527.5735    600.14691   -2.1238957    2.8792026    1.3605065    1.2258449    1.4498448    4.0361963 
   86000          172    558.55708    8516.9088    1521.6405     1527.602    600.37378   -2.1200049    2.8792205    1.3541798    1.3734847    1.4656979    4.1933624 
   88000          176    590.63785   -10796.776    1536.3825    1527.6098    600.28501    -2.444638    2.8792253    1.3727729    1.3605918    1.4252269    4.1585917 
   90000          180    581.05389   -15764.767     1542.045    1527.6069     600.3358    4.3546505    2.8792234    1.4014328    1.3660599    1.4101807    4.1776735 
   92000          184    594.41559   -552.24849    1530.4103    1527.6095     600.3132    4.2794779    2.8792248    1.4468932    1.3964759    1.4074473    4.2508164 
   94000          188    555.85575   -134.85182    1528.7001    1527.5978    600.13141    1.7190893    2.8792177    1.4278344    1.3755581    1.4603369    4.2637294 
   96000          192    525.73579   -12843.641    1544.3898    1527.5845    599.85387   0.47823797    2.8792094    1.3964166    1.3404267    1.4481638    4.1850071 
   98000          196    581.80896    2628.6659    1523.8061    1527.5814    599.78658   -1.4238513    2.8792075     1.421017    1.3704305    1.4288909    4.2203383 
----FINISHED: 2/40 ---- T=600 -----
  100000          200    551.79003   -3474.6637    1532.2441    1527.5729    599.72524    4.2404762    2.8792021    1.4038304    1.4128524    1.4544813    4.2711641 
Loop time of 15.4038 on 4 procs for 100000 steps with 129 atoms

Performance: 1121.804 ns/day, 0.021 hours/ns, 6491.923 timesteps/s
98.6% CPU use with 4 MPI tasks x 1 OpenMP threads

MPI task timing breakdown:
Section |  min time  |  avg time  |  max time  |%varavg| %total
---------------------------------------------------------------
Pair    | 8.7071     | 9.416      | 9.865      |  15.5 | 61.13
Neigh   | 0.0057695  | 0.006059   | 0.0062714  |   0.3 |  0.04
Comm    | 3.2358     | 3.6696     | 4.3561     |  24.0 | 23.82
Output  | 0.21209    | 0.22026    | 0.23545    |   1.9 |  1.43
Modify  | 1.8022     | 1.8084     | 1.82       |   0.5 | 11.74
Other   |            | 0.2835     |            |       |  1.84

Nlocal:    32.25 ave 38 max 28 min
Histogram: 1 0 1 0 0 1 0 0 0 1
Nghost:    916 ave 926 max 902 min
Histogram: 1 0 0 0 0 1 0 1 0 1
Neighs:    2240 ave 2511 max 1911 min
Histogram: 1 0 0 1 0 0 0 0 1 1

Total # of neighbors = 8960
Ave neighs/atom = 69.4574
Neighbor list builds = 83
Dangerous builds = 0
System init for write_data ...
Setting up Verlet run ...
  Unit style    : metal
  Current step  : 100000
  Time step     : 0.002
Per MPI rank memory allocation (min/avg/max) = 6.609 | 6.609 | 6.609 Mbytes
Step Temp PotEng TotEng Press Volume Lx 
  100000          600   -502.04754   -492.12036   -2918.6281    1532.2441    11.528584 
  102000    582.55669   -503.40884   -493.77026    2847.0572    1523.1967    11.505849 
  104000    634.04033   -504.10101   -493.61062      7872.57    1518.5221    11.494066 
  106000    692.43543   -503.43816   -491.98161    7016.2796    1521.3861    11.501288 
  108000     608.1134   -503.25536   -493.19394     14427.67    1513.1676    11.480541 
  110000     563.1021    -503.4321   -494.11541   -12309.281    1540.2489    11.548626 
  112000    532.97831   -502.34378    -493.5255   -1457.5309    1531.5899    11.526943 
  114000    674.18078   -503.35435   -492.19983    10833.645    1516.4896    11.488936 
  116000    538.34014   -504.13424   -495.22724    3281.7731    1522.5985    11.504342 
  118000    632.19764   -504.82075   -494.36085   -1541.0258    1528.4932    11.519169 
  120000    607.96922   -502.58164   -492.52261   -12440.867    1541.3664    11.551418 
  122000    616.56151   -502.64085   -492.43966   -5695.3938    1536.0449    11.538109 
  124000    649.46559   -503.08951    -492.3439    -8478.396    1539.2785      11.5462 
  126000    602.71969   -502.24982   -492.27764    13773.357    1515.9957    11.487689 
  128000    592.74442   -503.99151   -494.18438   -1847.4848    1530.4237    11.524017 
  130000    576.92668   -503.47255   -493.92713    1836.7753    1525.6984    11.512145 
  132000    665.49379    -504.4554   -493.44461    189.91823    1525.3178    11.511187 
  134000    641.94991   -502.51687   -491.89562   -9080.6781    1537.1483    11.540871 
  136000    618.37995   -502.20003   -491.96875    9842.7654    1521.7321     11.50216 
  138000    638.87411   -501.19279   -490.62242    13802.616    1519.8071    11.497308 
  140000    636.24036   -503.74931   -493.22253   -701.55505    1525.9671     11.51282 
  142000    554.26951   -502.99375    -493.8232    -6638.222    1534.4565     11.53413 
  144000    601.70719   -502.87306   -492.91764   -8415.7046    1536.1429    11.538354 
  146000    633.43703     -502.558    -492.0776   -1701.5516    1529.5633    11.521857 
  148000    661.69098    -503.8917   -492.94382   -8214.9896    1536.1431    11.538355 
  150000    685.75648   -504.07118   -492.72513   -12769.167    1539.5273    11.546822 
Loop time of 7.19424 on 4 procs for 50000 steps with 129 atoms

Performance: 1200.960 ns/day, 0.020 hours/ns, 6950.000 timesteps/s
98.8% CPU use with 4 MPI tasks x 1 OpenMP threads

MPI task timing breakdown:
Section |  min time  |  avg time  |  max time  |%varavg| %total
---------------------------------------------------------------
Pair    | 4.387      | 4.6575     | 4.8593     |   8.2 | 64.74
Neigh   | 0.0033431  | 0.0035002  | 0.003634   |   0.2 |  0.05
Comm    | 1.5785     | 1.7756     | 2.0382     |  12.9 | 24.68
Output  | 0.10724    | 0.11144    | 0.11916    |   1.4 |  1.55
Modify  | 0.50772    | 0.50992    | 0.51496    |   0.4 |  7.09
Other   |            | 0.1363     |            |       |  1.90

Nlocal:    32.25 ave 34 max 30 min
Histogram: 1 0 1 0 0 0 0 0 0 2
Nghost:    944.5 ave 947 max 942 min
Histogram: 1 0 0 0 1 0 1 0 0 1
Neighs:    2227.25 ave 2480 max 1923 min
Histogram: 1 0 0 0 0 1 1 0 0 1

Total # of neighbors = 8909
Ave neighs/atom = 69.062
Neighbor list builds = 48
Dangerous builds = 0
----STARTING----
Setting up Verlet run ...
  Unit style    : metal
  Current step  : 0
  Time step     : 0.002
Per MPI rank memory allocation (min/avg/max) = 8.235 | 8.235 | 8.235 Mbytes
Step v_my_time Temp Press Volume f_ave_vol f_ave_temp f_ave_press f_ave_latcon c_msdFe_1[1] c_msdFe_1[2] c_msdFe_1[3] c_msdFe_1[4] 
       0            0    685.75648   -12769.167    1539.5273            0            0            0            0    1.5778537    1.6683071    2.0401085    5.2862693 
    2000            4    624.06426    6784.3322    1521.1333     1526.877    585.15487    50.852882    2.8787656     1.558019    1.6589245    1.9651227    5.1820662 
    4000            8    539.08349   -1975.5048     1531.085    1526.8683     586.8782    57.223067    2.8787637    1.5476152    1.6803391    1.9879764    5.2159308 
    6000           12    621.03079   -1804.3465    1526.0768    1527.0599    588.45553    24.156995    2.8788818    1.5949281    1.7130616    1.9036503    5.2116401 
    8000           16    556.66025    13118.127    1513.9388    1527.4805    596.64978   -11.501856    2.8791452       1.5349    1.6991391    1.9451506    5.1791897 
   10000           20    678.69607    4226.1985    1524.1356    1527.5406    598.33083   -2.2352922    2.8791841    1.6229073    1.8264099    2.0352401    5.4845572 
   12000           24    504.38599   -897.52155    1524.8666    1527.4692    596.64448    1.1398849    2.8791393     1.599383    1.7914877    1.9966927    5.3875634 
   14000           28    603.55806    2563.9456    1523.2276    1527.4998    595.51072    2.2148729    2.8791573    1.5872292    1.8029854    1.9999238    5.3901384 
   16000           32    491.55425    1080.0241    1523.2528    1527.3323    594.43165    20.931448    2.8790521    1.6159421    1.8865288    2.0138276    5.5162986 
   18000           36    616.05122   -9652.9241    1535.3728    1527.2462    593.16626    5.7906487    2.8789976     1.573755     1.887592    1.9881967    5.4495437 
   20000           40     675.3451   -5541.7531    1532.2525    1527.1873    592.52942    5.3562698    2.8789602    1.6114834    1.8511895    2.0491813    5.5118542 
   22000           44    601.55134    19206.702     1505.606    1527.1957     592.6696   -3.8665969    2.8789652    1.5692745     1.878213    2.0602475    5.5077351 
   24000           48    659.10696    2187.2855     1526.075    1527.2083    593.03179   -3.2552082    2.8789729    1.6241094    1.8891377     2.191465     5.704712 
   26000           52     668.4377   -14109.833    1543.6678    1527.3844    595.63317  -0.33777912    2.8790839    1.6737463    1.8373839    2.1182614    5.6293917 
   28000           56     614.5261   -7555.1181    1537.6868     1527.426    596.29165    9.1522976    2.8791097    1.6266622    1.8463416    2.1694929    5.6424966 
   30000           60    575.65556   -10876.784    1537.5446    1527.4283    596.02831    3.1704213    2.8791116    1.6192097    1.9117379    2.1377342    5.6686818 
   32000           64    575.76227    3352.5018    1520.8176    1527.3503    594.72296     13.56716    2.8790622    1.6306941    1.9090177    2.2124812    5.7521929 
   34000           68    593.04312    10641.031     1519.292    1527.2896    594.01973     9.655002    2.8790242    1.7172905    1.8899787    2.2312308       5.8385 
   36000           72    543.42965    17802.503    1511.4863    1527.3459     594.7791    6.3949005     2.879059    1.6600709    1.9317774    2.2507052    5.8425536 
   38000           76    583.94031   -5950.5165    1534.0223    1527.3829    595.57069    2.4213695    2.8790825    1.6977028    1.9306289     2.193036    5.8213678 
   40000           80    693.24078   -8173.6455    1541.0539    1527.4167    596.40814    6.6660982    2.8791036    1.6758365    1.9114896    2.2725322    5.8598583 
   42000           84    610.10449   -6268.3024    1534.8528    1527.4789    597.81535    11.687234    2.8791428    1.7149394    1.9190452    2.2804217    5.9144064 
   44000           88    581.86798   -3595.1832    1526.5051     1527.485    598.15824    1.8892972    2.8791467     1.757238     1.933022    2.3306026    6.0208626 
   46000           92    609.03293   -22292.293    1550.8631    1527.5034    598.43905   -1.0435637    2.8791583    1.7132172    2.0759847    2.3870442    6.1762461 
   48000           96    569.77937   -4146.2288    1531.6485    1527.4893    598.36974    3.1593937    2.8791496    1.7862405    2.0010217     2.336244    6.1235062 
   50000          100    648.16485   -10049.043    1537.0734    1527.4889    598.15141    6.2245578    2.8791493    1.7912964     2.042616    2.3490242    6.1829366 
   52000          104    574.15401   -2166.3102    1530.2113    1527.4592    597.48392    3.4417176    2.8791307    1.7801368    2.0528657     2.405269    6.2382715 
   54000          108    608.14708   -1747.1312    1528.2308     1527.468    597.29229    5.5167131     2.879136    1.7508159    2.0314421    2.3349592    6.1172172 
   56000          112    604.92937    19118.648    1512.7023    1527.5162    598.21093    4.8180676    2.8791664    1.7629376    1.9858505    2.3491457    6.0979338 
   58000          116    548.64779    2737.3363    1526.3338    1527.5597    598.78146   -1.6799705    2.8791936    1.7991883    1.9903921    2.4012995    6.1908798 
   60000          120     591.2209   -14834.794    1540.2362    1527.5718    599.22088    1.9217485    2.8792011    1.8755349    2.0205892    2.3819098    6.2780338 
   62000          124    613.13817   -6728.1914    1534.5057    1527.5791    599.34633    6.3394276    2.8792056    1.8461119    2.0188019    2.4667039    6.3316176 
   64000          128    549.39962    3262.9806    1522.2318     1527.567    598.98226     4.339291    2.8791978    1.8894587    2.0418751    2.4658195    6.3971532 
   66000          132    561.48761    16420.809    1510.1167     1527.522    598.28537    5.0348556    2.8791693    1.9720103    2.0466888    2.5200557    6.5387548 
   68000          136    561.76816     9837.432    1523.4506    1527.4954     597.9951 -0.038738336    2.8791526    1.9658027    2.1015252    2.5691585    6.6364865 
   70000          140    647.40227   -5456.4706     1531.198    1527.4686    597.89238     2.643223     2.879136    1.9625265    2.0904306    2.5423379     6.595295 
   72000          144    603.44973     117.1411    1526.1048    1527.4766    597.95456   -2.8457868     2.879141    1.9235902    2.1775056    2.4461974    6.5472932 
   74000          148    544.96397    -9503.139    1539.1879    1527.5222    598.38288   -2.0600999    2.8791696    1.9519154    2.1423564    2.4691605    6.5634323 
   76000          152    585.78204   -15075.483    1542.5569    1527.5314    598.61924    5.9017343    2.8791752    1.9355783    2.2693464    2.4607882    6.6657129 
   78000          156    624.06974   -11856.166    1540.3154    1527.5378    598.61998    4.4666045     2.879179    1.9385061    2.2142434    2.4336497    6.5863991 
   80000          160    613.79344    1536.0527    1527.1397    1527.5374    598.74315    5.0317505    2.8791789    1.8394864    2.2787324    2.4024331    6.5206519 
   82000          164    579.69252    387.71427    1528.3544    1527.5451    598.75126    7.5309894    2.8791839    1.8163156    2.3080859    2.4343239    6.5587254 
   84000          168    591.26884   -21259.851    1546.7518    1527.5465    598.77226    6.6959981    2.8791848    1.7917795    2.4070719    2.5221971    6.7210486 
   86000          172    636.23137   -6750.5766    1532.2721    1527.5479    598.70316    3.8479044    2.8791858    1.8524961    2.3283234     2.477524    6.6583434 
   88000          176    633.96959   -153.44442     1529.952    1527.5561     599.0103    3.8966607     2.879191    1.8526459    2.3801788    2.5818176    6.8146423 
   90000          180    633.30041    2506.6372     1523.072    1527.5727    599.15324  -0.34054289    2.8792014    1.8323172    2.3181125    2.5048162     6.655246 
   92000          184    581.85936   -9338.0454    1537.0383    1527.5646    598.85463    1.0281782    2.8791963    1.8143385    2.3519419    2.5293539    6.6956344 
   94000          188    573.90468   -449.17573    1527.9258    1527.5486    598.65882    5.0514431    2.8791861    1.7876774      2.36969    2.4740028    6.6313702 
   96000          192    579.71578   -8430.4476    1536.9661    1527.5323    598.56198     5.384106    2.8791761    1.8195753    2.3958255    2.6164192      6.83182 
   98000          196    619.38573    7253.5765    1521.8659    1527.5545    599.00243    6.5933466    2.8791897    1.8034498    2.2624947    2.6086789    6.6746234 
----FINISHED: 3/40 ---- T=600 -----
  100000          200    576.18409    8761.8317    1518.8657    1527.5799    599.40773    4.8236198    2.8792057     1.842029    2.4102138    2.6998809    6.9521238 
Loop time of 15.3512 on 4 procs for 100000 steps with 129 atoms

Performance: 1125.644 ns/day, 0.021 hours/ns, 6514.145 timesteps/s
98.6% CPU use with 4 MPI tasks x 1 OpenMP threads

MPI task timing breakdown:
Section |  min time  |  avg time  |  max time  |%varavg| %total
---------------------------------------------------------------
Pair    | 8.7783     | 9.3561     | 9.7708     |  12.5 | 60.95
Neigh   | 0.006115   | 0.0063862  | 0.0066149  |   0.2 |  0.04
Comm    | 3.165      | 3.5661     | 4.124      |  19.5 | 23.23
Output  | 0.32343    | 0.33165    | 0.34679    |   1.6 |  2.16
Modify  | 1.8043     | 1.8099     | 1.8207     |   0.5 | 11.79
Other   |            | 0.281      |            |       |  1.83

Nlocal:    32.25 ave 34 max 31 min
Histogram: 1 0 0 2 0 0 0 0 0 1
Nghost:    966.25 ave 978 max 953 min
Histogram: 1 0 0 0 0 1 1 0 0 1
Neighs:    2259.5 ave 2423 max 2126 min
Histogram: 1 0 1 0 0 1 0 0 0 1

Total # of neighbors = 9038
Ave neighs/atom = 70.062
Neighbor list builds = 88
Dangerous builds = 0
System init for write_data ...
Setting up Verlet run ...
  Unit style    : metal
  Current step  : 100000
  Time step     : 0.002
Per MPI rank memory allocation (min/avg/max) = 8.236 | 8.236 | 8.236 Mbytes
Step Temp PotEng TotEng Press Volume Lx 
  100000          600   -502.99935   -493.07217    9038.9348    1518.8657    11.494933 
  102000    578.74704   -503.43665    -493.8611    8253.9983    1519.3223    11.496085 
  104000    562.43218   -504.06561      -494.76    4888.8539    1522.0565    11.502977 
  106000    674.52758   -501.55325   -490.39299   -8314.9457     1542.996    11.555487 
  108000    612.14262   -503.05408     -492.926    3701.9075    1523.7087    11.507138 
  110000    555.17003   -503.16029   -493.97484    -5441.777    1533.4803    11.531684 
  112000    581.73197   -503.25059   -493.62566    185.88545    1526.0932    11.513137 
  114000    641.10163    -504.3217   -493.71448    4250.4418    1522.0012    11.502838 
  116000    628.21744    -502.3268   -491.93275   -1975.4991    1532.7885     11.52995 
  118000    591.87767   -502.46563   -492.67283   -445.04732    1529.0665     11.52061 
  120000     601.8094   -503.86979   -493.91268   -8785.1964     1533.729    11.532307 
  122000    598.00144     -504.353   -494.45889   -5408.8887    1530.4674    11.524127 
  124000    621.21832   -503.39134    -493.1131   -12901.154    1541.1797    11.550952 
  126000    570.19734   -501.40748    -491.9734    5277.5597    1527.8929    11.517661 
  128000    588.28871   -503.26323   -493.52982   -10630.609    1537.8021    11.542507 
  130000     611.9741   -504.70216   -494.57686    2636.1364    1522.6117    11.504376 
  132000    566.87981   -503.47504   -494.09584    8747.0099    1518.3623    11.493663 
  134000    675.51876   -503.23494   -492.05828    2974.5453    1525.9933    11.512886 
  136000    642.81491   -503.50962   -492.87406   -24703.632    1550.8489    11.575058 
  138000    594.37744    -504.1133   -494.27915   -11578.788    1535.1293    11.535816 
  140000     607.2985    -502.3046   -492.25666    -19179.87    1549.8797    11.572646 
  142000    586.53002   -504.20878   -494.50447   -4675.9912    1530.4754    11.524147 
  144000    535.09325   -504.07453   -495.22126   -141.26351    1526.5374    11.514254 
  146000    547.99608   -503.35835   -494.29159    1836.9959    1528.0584    11.518077 
  148000    662.24083   -503.45476   -492.49779    12934.745    1513.9453    11.482507 
  150000    508.55929   -502.80539   -494.39112   -6634.8073     1533.497    11.531726 
Loop time of 7.33861 on 4 procs for 50000 steps with 129 atoms

Performance: 1177.335 ns/day, 0.020 hours/ns, 6813.279 timesteps/s
98.6% CPU use with 4 MPI tasks x 1 OpenMP threads

MPI task timing breakdown:
Section |  min time  |  avg time  |  max time  |%varavg| %total
---------------------------------------------------------------
Pair    | 4.4375     | 4.6949     | 4.964      |   9.7 | 63.98
Neigh   | 0.0030389  | 0.0032151  | 0.0033679  |   0.2 |  0.04
Comm    | 1.5629     | 1.8229     | 2.0684     |  14.8 | 24.84
Output  | 0.16281    | 0.16699    | 0.17463    |   1.1 |  2.28
Modify  | 0.50904    | 0.51373    | 0.52032    |   0.7 |  7.00
Other   |            | 0.1369     |            |       |  1.86

Nlocal:    32.25 ave 35 max 30 min
Histogram: 1 0 1 0 0 0 1 0 0 1
Nghost:    963.25 ave 970 max 958 min
Histogram: 1 1 0 0 0 1 0 0 0 1
Neighs:    2251.25 ave 2665 max 1956 min
Histogram: 2 0 0 0 0 0 1 0 0 1

Total # of neighbors = 9005
Ave neighs/atom = 69.8062
Neighbor list builds = 44
Dangerous builds = 0
----STARTING----
Setting up Verlet run ...
  Unit style    : metal
  Current step  : 0
  Time step     : 0.002
Per MPI rank memory allocation (min/avg/max) = 9.862 | 9.862 | 9.862 Mbytes
Step v_my_time Temp Press Volume f_ave_vol f_ave_temp f_ave_press f_ave_latcon c_msdFe_1[1] c_msdFe_1[2] c_msdFe_1[3] c_msdFe_1[4] 
       0            0    508.55929   -6634.8073     1533.497            0            0            0            0    2.2649542    2.5395519    2.9508532    7.7553593 
    2000            4    578.31371    -1242.244    1530.2309     1527.789    603.17987    34.718553    2.8793373    2.3590467    2.6666892    2.9711944    7.9969303 
    4000            8    655.36746    20787.663    1508.9584    1528.1832    613.67981   -46.682738    2.8795883    2.3094643    2.6607803    2.9013983    7.8716429 
    6000           12    643.69716    4467.2987    1521.6431    1528.3135    616.61529   -33.860711    2.8796671    2.3643612    2.7107194    3.0225125    8.0975931 
    8000           16    586.45477    7289.1625    1518.2306     1528.102    612.95511   -25.439879    2.8795349     2.394297    2.6557998     3.008218    8.0583148 
   10000           20    607.85273   -1699.1014    1528.4276    1528.0463    610.82067   -26.775369    2.8794983    2.4973691    2.6910264    3.0583254    8.2467209 
   12000           24    598.68131    11043.687    1519.1269    1527.8167    605.16174   -17.923142    2.8793543    2.5647018    2.6960657    3.0088236    8.2695912 
   14000           28    581.62169    2097.0306    1522.5324    1527.7696     602.9686   -26.423852    2.8793248     2.537025    2.6773033    2.9632893    8.1776176 
   16000           32     547.9237   -2915.4152    1531.4857    1527.6929    602.62926   -2.3592308    2.8792756    2.5152807    2.6800406    2.9967436    8.1920649 
   18000           36    516.29523    3895.3796    1521.0342    1527.6202    601.47108   0.59540149    2.8792295    2.5646588    2.6892799    3.0536362    8.3075749 
   20000           40    625.94413   -16502.358    1545.9149    1527.6078    599.97486   -2.1835836    2.8792225     2.698054    2.6969167    3.2142423     8.609213 
   22000           44     588.7918   -5248.4169    1533.4899    1527.6492    600.08145    3.9360348    2.8792489    2.5617694    2.7055266    3.0720518    8.3393478 
   24000           48    600.12886   -14128.402    1538.3503    1527.6563    600.25946   -5.3335422    2.8792542    2.5859463     2.696055    2.9921439    8.2741451 
   26000           52    690.21428    -4009.753    1534.8511    1527.7126    601.80661    5.2587623    2.8792897     2.575593    2.7360931    3.1373897    8.4490757 
   28000           56    612.07152    15463.427     1509.377    1527.7598     603.3184   -8.4737936    2.8793199    2.6262255    2.6731893    3.0073757    8.3067905 
   30000           60    582.79875    4486.0996    1521.3991     1527.752    603.66563   -1.9555729    2.8793152    2.6336902    2.6508488    3.0591035    8.3436424 
   32000           64    648.59759    11638.317    1519.4398    1527.7803    604.01582 -0.067477252    2.8793329    2.6279839    2.7088034    3.1264924    8.4632797 
   34000           68    585.81735     8297.956    1523.0264    1527.7606    603.43276  -0.48402852    2.8793209    2.6271358    2.7566268    3.0667854     8.450548 
   36000           72    595.16115    10737.956     1514.383    1527.7211    602.21256    -4.412271    2.8792963    2.5815194    2.7797319    3.0607568    8.4220082 
   38000           76    596.28876    5588.4349    1524.2466    1527.6973     601.5379   -9.3342637    2.8792815    2.6566447    2.7780832    3.1199682    8.5546962 
   40000           80    646.67129   -5398.2776    1533.8902    1527.7384    602.49539   -7.6816114    2.8793073    2.5559456    2.8412326    3.1386065    8.5357847 
   42000           84    577.75547   -6458.6376    1534.6375    1527.7389    602.76551   -7.5813503     2.879308    2.5147359    2.8655153    3.1339713    8.5142225 
   44000           88    622.32984   -4737.6911    1532.0468    1527.7873    603.45716    1.8681579    2.8793376    2.5082867    2.9032566    3.0855251    8.4970684 
   46000           92    678.22856    7778.6229    1522.2723    1527.8243    603.43007   0.46778221     2.879361    2.5219565    3.0019836    3.0670554    8.5909955 
   48000           96    605.83022     430.0632    1525.1198    1527.8587    603.40492   -8.7841016    2.8793823    2.5267978    2.9620624    3.2359802    8.7248404 
   50000          100    529.00684    5814.4595    1519.2598    1527.7846    602.38842   -5.0378641    2.8793358    2.5437915    3.0950681    3.2597805    8.8986401 
   52000          104    639.20874   -2274.6962    1526.8079    1527.7326    601.69847   -8.0387801    2.8793031    2.5799119    3.0708425    3.3334217    8.9841761 
   54000          108    579.71944    5316.4811    1521.0094    1527.6903    601.04813    3.6829124    2.8792768    2.5644033    3.1465251     3.292255    9.0031835 
   56000          112    653.50548    19813.488    1508.4149    1527.6805    600.78978   0.51971212    2.8792705    2.5518172    3.1212017    3.3643278    9.0373467 
   58000          116    647.77208    9936.7553    1516.5057    1527.6625    600.37787   -3.3401434     2.879259    2.6285343    3.1260006    3.2952795    9.0498144 
   60000          120    537.12933   -5008.6638    1530.0509    1527.6358    599.83918   -3.2043529     2.879242    2.6056024    3.1346185    3.3492117    9.0894326 
   62000          124    592.69017   -11980.076    1541.8849    1527.6398    599.77983   -1.7300105    2.8792444    2.6173501    3.1330254     3.335922    9.0862975 
   64000          128    653.34602    3272.2542    1523.4361    1527.6333    599.73624   -1.0389695    2.8792404    2.6089134    3.1009621    3.2825542    8.9924297 
   66000          132    561.14415   -1222.4306     1523.007    1527.6339    599.71529   -2.0407216    2.8792405    2.6442794    3.1100409    3.3302577     9.084578 
   68000          136    604.12773   -13671.148    1539.7641    1527.6264    599.62697   -3.5717846     2.879236    2.6313581    3.1481154    3.4139503    9.1934239 
   70000          140      609.745   -21594.545    1552.9021    1527.6194    599.67485   0.96793252    2.8792315    2.6450198    3.1863797    3.3586201    9.1900196 
   72000          144    707.09859    6914.7331    1519.4195     1527.604    599.74059    2.9830722    2.8792217    2.5783802    3.1311286    3.3663974    9.0759063 
   74000          148    652.94935    8664.5465    1518.6566    1527.6313    600.23112   0.64641649    2.8792389    2.5705403    3.2062212    3.3722751    9.1490365 
   76000          152    575.01769   -14873.486    1542.2153    1527.6287    600.36586   -1.5015373    2.8792375    2.6010246    3.2687623    3.4900851     9.359872 
   78000          156    596.05285   -5391.1459    1533.9853    1527.6609    600.79597   -2.0379301     2.879258    2.6184234    3.2537241    3.3617997    9.2339472 
   80000          160    654.51694   -7720.0385    1539.7604    1527.6932     601.1267   -5.2697627    2.8792784    2.5411886    3.3167917    3.3761316     9.234112 
   82000          164    612.53911   -4868.7812    1532.1425     1527.703    601.28671   -1.7778888    2.8792846    2.5438793    3.2314072    3.4111771    9.1864637 
   84000          168    556.02287   -2335.9137    1527.4329    1527.6948    601.32526   -1.6043416    2.8792795    2.5576481    3.2314093    3.3716703    9.1607276 
   86000          172    627.04534   -5802.1806    1540.6097    1527.6905    601.58274   -5.7001901    2.8792769    2.5089146    3.2084275    3.3906881    9.1080302 
   88000          176    640.33182    6372.1893    1523.1619    1527.7271    602.09747   -7.0672282    2.8792998    2.5507433    3.1755519    3.4096055    9.1359006 
   90000          180    554.90453    7824.0868    1519.8355    1527.7436    602.21602    -5.969194    2.8793103    2.5382626    3.2196626    3.3967317    9.1546569 
   92000          184    604.21769   -1576.8017    1530.1921    1527.7323    602.04597   -4.9239282    2.8793028     2.563078     3.279164    3.3844055    9.2266475 
   94000          188    611.86759   -4597.6777    1532.4927    1527.7262    601.93579    -4.568573    2.8792992     2.626252    3.2854056     3.423123    9.3347806 
   96000          192    537.35241   -9839.9655    1539.7478    1527.7125    601.53321   -2.1420704    2.8792907      2.63243    3.2517327    3.4174137    9.3015764 
   98000          196    536.99149     4941.164    1517.9878    1527.6974    601.06474   -1.8541556    2.8792812    2.6117498    3.1718407    3.4321322    9.2157227 
----FINISHED: 4/40 ---- T=600 -----
  100000          200    642.64595    6523.9716    1520.7096     1527.676    600.77554   -3.3723589    2.8792677    2.5896827    3.2660466    3.3545276    9.2102569 
Loop time of 15.6223 on 4 procs for 100000 steps with 129 atoms

Performance: 1106.114 ns/day, 0.022 hours/ns, 6401.121 timesteps/s
98.5% CPU use with 4 MPI tasks x 1 OpenMP threads

MPI task timing breakdown:
Section |  min time  |  avg time  |  max time  |%varavg| %total
---------------------------------------------------------------
Pair    | 8.9214     | 9.4455     | 9.9415     |  12.8 | 60.46
Neigh   | 0.0065796  | 0.0068483  | 0.0071015  |   0.2 |  0.04
Comm    | 3.1377     | 3.6183     | 4.1211     |  19.8 | 23.16
Output  | 0.4368     | 0.44496    | 0.45995    |   1.3 |  2.85
Modify  | 1.817      | 1.8232     | 1.8345     |   0.5 | 11.67
Other   |            | 0.2834     |            |       |  1.81

Nlocal:    32.25 ave 35 max 30 min
Histogram: 1 0 1 0 0 0 1 0 0 1
Nghost:    940.75 ave 948 max 933 min
Histogram: 2 0 0 0 0 0 0 0 0 2
Neighs:    2261.25 ave 2645 max 1916 min
Histogram: 1 0 1 0 0 0 1 0 0 1

Total # of neighbors = 9045
Ave neighs/atom = 70.1163
Neighbor list builds = 94
Dangerous builds = 0
System init for write_data ...
Setting up Verlet run ...
  Unit style    : metal
  Current step  : 100000
  Time step     : 0.002
Per MPI rank memory allocation (min/avg/max) = 9.862 | 9.862 | 9.862 Mbytes
Step Temp PotEng TotEng Press Volume Lx 
  100000          600   -503.28135   -493.35418    6028.3786    1520.7096    11.499583 
  102000      586.573    -503.5415   -493.83647    15278.607    1510.6304    11.474121 
  104000    543.41186   -503.12301    -494.1321    7593.4707    1520.0184     11.49784 
  106000    535.74331   -502.26179   -493.39776     3565.731    1523.1823    11.505813 
  108000    620.68461   -503.23425   -492.96483    1925.0741    1524.0646    11.508034 
  110000    635.86468   -504.86778   -494.34721    6659.4059    1518.8017    11.494772 
  112000    616.49146   -504.16206   -493.96203   -3103.4242    1528.6776    11.519633 
  114000    656.87362   -503.80023   -492.93206     -3495.63    1529.5584    11.521845 
  116000    596.56745   -502.95383   -493.08344    5741.3031    1521.8432     11.50244 
  118000    564.96164   -503.36168   -494.01422    3392.3083    1524.1702    11.508299 
  120000    528.25578    -505.1895   -496.44935   -6667.4543    1528.3073    11.518703 
  122000    630.19938    -505.0713   -494.64446   -562.57295    1527.7872    11.517396 
  124000    548.19168   -503.63078   -494.56079    -1717.141    1525.4377    11.511489 
  126000    673.24971    -502.8384   -491.69928    24.837423    1529.9538    11.522838 
  128000    619.37395   -502.80828   -492.56055   -3880.1367    1531.8922    11.527702 
  130000    559.86525   -503.19482   -493.93168    6483.8934    1518.4756    11.493949 
  132000    549.77817   -502.30096   -493.20472    12104.859    1519.9469     11.49766 
  134000    608.89845   -503.47817   -493.40377     3154.182    1526.5863    11.514377 
  136000    621.43416   -504.03048   -493.74867    15722.519    1511.1956    11.475551 
  138000    640.13547   -504.43881   -493.84758    3755.1376    1521.2896    11.501045 
  140000    622.01968   -504.27515   -493.98364    157.90954    1527.2267    11.515987 
  142000    605.14306   -503.34445   -493.33218   -5484.4507    1532.8399    11.530079 
  144000    597.45468   -502.49521   -492.61014    5973.4861    1520.0065    11.497811 
  146000    636.06479   -504.58083   -494.05695     10448.94    1514.2609    11.483305 
  148000    586.96414   -502.85529   -493.14379   -944.62228    1528.4051    11.518948 
  150000    661.98184   -501.88326   -490.93057   -16378.272    1549.9435    11.572805 
Loop time of 7.39141 on 4 procs for 50000 steps with 129 atoms

Performance: 1168.925 ns/day, 0.021 hours/ns, 6764.612 timesteps/s
98.4% CPU use with 4 MPI tasks x 1 OpenMP threads

MPI task timing breakdown:
Section |  min time  |  avg time  |  max time  |%varavg| %total
---------------------------------------------------------------
Pair    | 4.3586     | 4.6941     | 4.9486     |  10.7 | 63.51
Neigh   | 0.0026352  | 0.002763   | 0.0028927  |   0.2 |  0.04
Comm    | 1.5694     | 1.8194     | 2.147      |  16.8 | 24.61
Output  | 0.21675    | 0.22096    | 0.22863    |   1.0 |  2.99
Modify  | 0.5141     | 0.51665    | 0.51972    |   0.3 |  6.99
Other   |            | 0.1376     |            |       |  1.86

Nlocal:    32.25 ave 37 max 30 min
Histogram: 1 2 0 0 0 0 0 0 0 1
Nghost:    944.25 ave 955 max 932 min
Histogram: 1 0 1 0 0 0 0 0 0 2
Neighs:    2253.75 ave 2696 max 1903 min
Histogram: 1 1 0 0 0 1 0 0 0 1

Total # of neighbors = 9015
Ave neighs/atom = 69.8837
Neighbor list builds = 38
Dangerous builds = 0
----STARTING----
Setting up Verlet run ...
  Unit style    : metal
  Current step  : 0
  Time step     : 0.002
Per MPI rank memory allocation (min/avg/max) = 11.49 | 11.49 | 11.49 Mbytes
Step v_my_time Temp Press Volume f_ave_vol f_ave_temp f_ave_press f_ave_latcon c_msdFe_1[1] c_msdFe_1[2] c_msdFe_1[3] c_msdFe_1[4] 
       0            0    661.98184   -16378.272    1549.9435            0            0            0            0    2.8962707    3.7381353    3.8072073    10.441613 
    2000            4    574.81947   -14812.044    1540.6283    1527.4949    602.79059    23.345088    2.8791572     2.945575     3.769698    3.7811692    10.496442 
    4000            8    635.32452    2113.9577    1525.2244    1527.4772    597.47201   -6.4993661    2.8791422    2.9745895    3.7796905    3.7548657    10.509146 
    6000           12    570.58879    8039.1584      1521.18    1527.1112     592.3116   -3.8054376    2.8789099    3.0326411    3.7829338    3.7165063    10.532081 
    8000           16    578.99806    15549.158    1513.1338    1527.2268    593.86181   -17.234708    2.8789824    2.9994599     3.929543    3.7802407    10.709244 
   10000           20    549.51229   -6298.0282    1534.3676    1526.9781    590.73222    5.8608192    2.8788281     3.059814    3.9447332    3.7737624     10.77831 
   12000           24    585.04428    5185.9295     1523.199    1526.9607    590.82701   -5.8194022    2.8788189    3.0433671    3.9562062    3.8113817    10.810955 
   14000           28    678.84101   -9144.2764    1540.7289    1527.0411    594.43034    2.0028748    2.8788697    3.1768045    3.9303749    3.8043772    10.911557 
   16000           32    622.30086    5882.6578    1523.1762    1527.2475    597.74056    2.9417352    2.8789988    3.1184385    3.9484252    3.8542908    10.921155 
   18000           36    584.97414    4393.8552     1523.918     1527.331    600.10633     1.282957     2.879051    3.1384209    3.9220808    3.8119285     10.87243 
   20000           40    589.01355    9167.6426    1516.5484    1527.3457    600.00045    6.1014619    2.8790594    3.1068534    3.8331397     3.810519    10.750512 
   22000           44    598.10815     2981.407    1522.6931    1527.4294    601.72239   -17.830299    2.8791125    3.1343757    3.9475721     3.766948    10.848896 
   24000           48    665.63262   -5733.5618    1534.8244    1527.4204    602.50461   -6.5724202    2.8791057    3.1863774    3.9147669    3.7976968    10.898841 
   26000           52    605.34859    6605.0125    1520.4523    1527.4664    603.26886   0.48765209    2.8791352    3.1511747    3.9353952    3.8600694    10.946639 
   28000           56    578.70741   -8725.2119    1540.5202    1527.4337    602.44743    3.8177789    2.8791151    3.1183213    3.9286111    3.8215179     10.86845 
   30000           60    578.95947   -146.10505     1525.124    1527.4391    601.28989    8.2434246    2.8791174    3.1456708    3.8999736    3.8459681    10.891613 
   32000           64    610.77365    6967.4202    1516.3092    1527.3807    599.77433    5.2696093    2.8790805    3.0966546    3.8543713    3.8263515    10.777377 
   34000           68    555.12304   -6521.4977    1536.1073    1527.3527    599.12294    6.6835556    2.8790635    3.2661464    3.8670282    3.8178611    10.951036 
   36000           72    635.05777    6776.6193    1521.1253    1527.4101    600.10637    4.1527645    2.8790996    3.2479243    3.8914534    3.7320126     10.87139 
   38000           76     638.4131    9087.7786    1516.4097    1527.4517    600.72874    2.8343674    2.8791255    3.1542103    3.8495627    3.8709466     10.87472 
   40000           80    536.91287    2572.5162    1524.5069    1527.4323    600.69989   -4.7547036    2.8791138    3.1361172    3.8934651    3.7302579     10.75984 
   42000           84    524.34576   -2009.7845    1528.9218     1527.419    600.40389     1.077074    2.8791053    3.2197015    3.9184183    3.7867418    10.924862 
   44000           88    640.37961    12122.363    1518.2098    1527.4292    599.95956    3.4530394    2.8791118     3.139475    3.8271841    3.8193793    10.786038 
   46000           92    603.82209    2909.7479    1526.1095    1527.4814    600.25858   0.52297482    2.8791444    3.2137539     3.880709    3.7785689    10.873032 
   48000           96    654.53124    6305.4898    1523.6965    1527.5291    600.58593   -6.7447495    2.8791739    3.2139438    3.7866276      3.81006    10.810631 
   50000          100    601.04572   -3509.4372    1527.7775    1527.5144    600.77808    2.7256613     2.879165    3.2160141    3.9004468    3.8510177    10.967479 
   52000          104    669.79444   -3584.1061    1529.7185    1527.5291    601.25137     4.742017    2.8791742    3.3594106    3.7885229    4.0164154    11.164349 
   54000          108    627.16066    4335.2421    1526.2079    1527.5643    601.69636  0.096322211    2.8791967    3.2580572    3.8991746    3.9419712    11.099203 
   56000          112    665.76365   -2243.2718    1533.4615    1527.5952    602.19579  -0.85444841    2.8792165    3.2515887    3.8843313    3.9602747    11.096195 
   58000          116    667.48966   -6.2369048    1527.9403    1527.6089     602.6008  -0.98395159     2.879225    3.2812638    3.8886644    3.8933488    11.063277 
   60000          120    642.08224    3335.7866    1522.8938    1527.5895    602.78311    2.7845604    2.8792127    3.2745719    3.9732689    3.8764502    11.124291 
   62000          124    599.85172     8484.436    1515.6284     1527.628    603.26609   -3.7426373    2.8792369    3.3034829    4.0822883    3.8880628    11.273834 
   64000          128     717.7244    9369.9604    1519.5773    1527.6442    603.28916   -3.8584452    2.8792473    3.2368416    4.1437923    3.8924252    11.273059 
   66000          132    582.82569   -3744.7853    1534.9095    1527.6613    604.02145   -3.0541326    2.8792578    3.5384675     3.978425    4.2113896    11.728282 
   68000          136    654.89397   -6557.3158    1535.0496    1527.6786    604.34497   -1.0194271    2.8792687    3.5654322    3.9584668    4.1883732    11.712272 
   70000          140    566.20877    5652.0412    1523.9351    1527.7093    604.86708    5.9050089    2.8792881    3.5725229    4.0248452    4.1732509    11.770619 
   72000          144    585.27432   -7207.7486    1533.8125    1527.7208    604.83324 -0.026877387    2.8792953    3.5279677     3.946115    4.1813932    11.655476 
   74000          148    599.41151    -1478.245    1525.5552    1527.7168    605.09365   0.11196997    2.8792926    3.6303341     3.994931    4.2377791    11.863044 
   76000          152    662.77265    4117.6992    1523.4794    1527.7058    605.17864    2.2703944    2.8792856    3.5583568    4.0260243    4.1303969    11.714778 
   78000          156    602.04086    7256.5409    1519.5198    1527.7145    605.34766   -4.8669283    2.8792912    3.5703258    3.9867865    4.1335904    11.690703 
   80000          160    527.49729   -873.08881    1527.9203    1527.6771    604.80882  -0.42313421    2.8792676    3.5472098    4.0270371    4.1897726    11.764019 
   82000          164    541.55799   -18406.822    1545.6159    1527.6378    604.22451   -3.4138804    2.8792428    3.6601598    4.1226562    4.2224048    12.005221 
   84000          168    646.22568    11173.783    1513.3586    1527.6326     603.9034     1.880794    2.8792397    3.5664677    4.1247085    4.1217713    11.812948 
   86000          172    575.24016    5913.6384    1523.7892    1527.6324    603.54285   0.98828887    2.8792395    3.6048102     3.993237    4.0862351    11.684282 
   88000          176     533.9751   -3416.2964    1530.9829    1527.6301    603.17361    -3.652769    2.8792383     3.638577    4.0580609    4.2055071    11.902145 
   90000          180    662.53697   -10920.134    1543.7011    1527.6609    603.43365   -6.4974144    2.8792575    3.6264728    4.0746884    4.0790074    11.780169 
   92000          184    554.57209    1498.4488    1524.9452    1527.6555    603.71604   -1.3890741    2.8792541    3.6722873    3.9580956    4.1820895    11.812472 
   94000          188      568.718   -3002.2359    1531.7184    1527.6784    604.00385   -1.6587943    2.8792688    3.6044637    3.9950801    4.0393919    11.638936 
   96000          192    569.75405   -944.75697    1529.8917    1527.6869    603.90666   0.55082074    2.8792742    3.7657861     4.066504    4.0837665    11.916056 
   98000          196    523.98697    1933.3547     1528.939    1527.7275    604.27646   -1.3814326    2.8792998    3.6554437    4.0785647    4.1252718     11.85928 
----FINISHED: 5/40 ---- T=600 -----
  100000          200    639.68705   -6860.1587    1535.7795     1527.732    604.37038   -4.7342323    2.8793027    3.8419669    4.1627106     4.168149    12.172827 
Loop time of 15.6654 on 4 procs for 100000 steps with 129 atoms

Performance: 1103.066 ns/day, 0.022 hours/ns, 6383.484 timesteps/s
98.5% CPU use with 4 MPI tasks x 1 OpenMP threads

MPI task timing breakdown:
Section |  min time  |  avg time  |  max time  |%varavg| %total
---------------------------------------------------------------
Pair    | 8.8833     | 9.4233     | 9.8861     |  12.5 | 60.15
Neigh   | 0.007076   | 0.0074085  | 0.0076849  |   0.3 |  0.05
Comm    | 3.1271     | 3.5769     | 4.097      |  19.5 | 22.83
Output  | 0.54442    | 0.55264    | 0.56775    |   1.2 |  3.53
Modify  | 1.8171     | 1.8215     | 1.8305     |   0.4 | 11.63
Other   |            | 0.2837     |            |       |  1.81

Nlocal:    32.25 ave 34 max 31 min
Histogram: 1 0 0 2 0 0 0 0 0 1
Nghost:    883.25 ave 891 max 876 min
Histogram: 1 0 1 0 0 0 0 1 0 1
Neighs:    2236.75 ave 2483 max 1940 min
Histogram: 1 0 1 0 0 0 0 0 0 2

Total # of neighbors = 8947
Ave neighs/atom = 69.3566
Neighbor list builds = 102
Dangerous builds = 0
System init for write_data ...
Setting up Verlet run ...
  Unit style    : metal
  Current step  : 100000
  Time step     : 0.002
Per MPI rank memory allocation (min/avg/max) = 11.49 | 11.49 | 11.49 Mbytes
Step Temp PotEng TotEng Press Volume Lx 
  100000          650   -502.63798   -491.88354   -6741.4867    1535.7795    11.537444 
  102000    612.38509   -501.42191   -491.28981   -9320.1525    1542.4963     11.55424 
  104000    726.94055    -502.2855   -490.25805   -17287.564    1551.1873      11.5759 
  106000     596.4821   -503.06739   -493.19842    -796.0368    1529.2233    11.521003 
  108000    616.48103   -501.90536    -491.7055    7579.5542    1520.2247    11.498361 
  110000    708.19325   -502.65303   -490.93577   -3487.4383    1534.2346    11.533574 
  112000    678.92579   -502.11182   -490.87879    1662.6647    1530.7098    11.524735 
  114000    623.08648   -502.76836   -492.45921   -4847.8263    1535.0497    11.535617 
  116000    602.36184   -501.66132   -491.69506   -7853.2185    1541.1296    11.550826 
  118000    699.05989   -502.03181   -490.46566   -7348.1892    1537.4633    11.541659 
  120000    679.97029   -501.37731     -490.127    4768.7186    1529.0536    11.520577 
  122000    558.15471   -500.99183     -491.757   -6398.4325    1535.8904    11.537722 
  124000    692.56282    -503.7786   -492.31994    1902.0079    1525.7939    11.512385 
  126000    632.47079   -500.98169   -490.51727   -10027.322    1542.9683    11.555418 
  128000    598.58001   -501.70889    -491.8052   -1094.1676    1530.2619    11.523611 
  130000    616.16716   -504.03671   -493.84204    2836.3226    1521.8739    11.502517 
  132000    621.22739   -503.47004   -493.19165   -1231.8122     1527.532    11.516755 
  134000    659.39553   -501.34528   -490.43538   -11353.087    1542.5893    11.554472 
  136000    599.46059   -502.32964   -492.41138    -11578.87    1540.1861    11.548469 
  138000    653.21817   -501.57497   -490.76728   -2888.8588    1533.1454    11.530845 
  140000    706.47428   -501.22435   -489.53552    4771.9714    1529.1055    11.520708 
  142000    614.82961     -501.078   -490.90546    7584.1801    1521.3613    11.501225 
  144000    652.06553   -503.12368   -492.33506    16289.744    1512.2322    11.478175 
  146000    689.91574   -502.35095   -490.93609    1565.8878    1531.0727    11.525646 
  148000    701.92249   -502.88328   -491.26977    13745.926    1513.6041    11.481645 
  150000    592.06587   -502.22996   -492.43405   -742.58313     1529.357    11.521339 
Loop time of 7.36384 on 4 procs for 50000 steps with 129 atoms

Performance: 1173.300 ns/day, 0.020 hours/ns, 6789.933 timesteps/s
98.5% CPU use with 4 MPI tasks x 1 OpenMP threads

MPI task timing breakdown:
Section |  min time  |  avg time  |  max time  |%varavg| %total
---------------------------------------------------------------
Pair    | 4.4148     | 4.6897     | 4.9162     |   8.6 | 63.69
Neigh   | 0.0050356  | 0.0052595  | 0.0054832  |   0.2 |  0.07
Comm    | 1.5088     | 1.7329     | 2.0026     |  13.9 | 23.53
Output  | 0.27239    | 0.27665    | 0.28437    |   0.9 |  3.76
Modify  | 0.51879    | 0.52227    | 0.52429    |   0.3 |  7.09
Other   |            | 0.137      |            |       |  1.86

Nlocal:    32.25 ave 36 max 30 min
Histogram: 1 1 0 1 0 0 0 0 0 1
Nghost:    912.5 ave 923 max 902 min
Histogram: 2 0 0 0 0 0 0 0 0 2
Neighs:    2259 ave 2392 max 1965 min
Histogram: 1 0 0 0 0 0 0 0 1 2

Total # of neighbors = 9036
Ave neighs/atom = 70.0465
Neighbor list builds = 73
Dangerous builds = 0
----STARTING----
Setting up Verlet run ...
  Unit style    : metal
  Current step  : 0
  Time step     : 0.002
Per MPI rank memory allocation (min/avg/max) = 13.11 | 13.11 | 13.11 Mbytes
Step v_my_time Temp Press Volume f_ave_vol f_ave_temp f_ave_press f_ave_latcon c_msdFe_2[1] c_msdFe_2[2] c_msdFe_2[3] c_msdFe_2[4] 
       0            0    592.06587   -742.58313     1529.357            0            0            0            0    3.2020543    3.5415376    3.0084392    9.7520312 
    2000            4    717.75419   -6549.8793     1542.467    1531.1446    666.74626    7.1835736    2.8814288     3.102958    3.6262496    3.0725378    9.8017454 
    4000            8    652.69448   -16681.399    1549.1359    1531.0874    668.89542    -87.53793    2.8814005    3.3111907    3.7674889    2.9466057    10.025285 
    6000           12    689.46161   -1980.9078    1530.5712    1531.3126    671.86225   -40.161324     2.881546    3.5132394    3.8116369    2.9559768    10.280853 
    8000           16    654.02192    15160.907    1514.9075    1531.0877    667.69215   -44.787312    2.8814052    3.4694027    3.8814311    2.9644553    10.315289 
   10000           20    654.51617    666.36176    1529.5104    1530.9314    665.25721   -24.122054    2.8813081    3.5558079    3.9984494    3.0178912    10.572149 
   12000           24    583.10721    1180.5559    1522.9478    1530.7439    662.84597   -5.2995105    2.8811898    3.4397924    3.9564129    3.0877732    10.483979 
   14000           28    710.41514    3682.9913    1524.9434    1530.4145    658.03778    -10.80615    2.8809846    3.4587154    4.0399478    3.0757822    10.574445 
   16000           32    657.41175    2805.6342    1528.3019    1530.3993    657.30365   -3.3968313    2.8809747    3.8748607    4.0316788     3.105725    11.012264 
   18000           36    583.96645    -17280.46     1545.652    1530.3106     655.0823   -9.3534262    2.8809199    3.8231205    4.0450312    3.0726478      10.9408 
   20000           40    558.98448    1371.3995    1527.2194    1530.1537    652.29874    -17.01461    2.8808209    3.7688891    4.0265554    3.1599556      10.9554 
   22000           44    644.61962    7019.3359    1523.3457    1530.0854    651.28974   -1.6974416    2.8807772    3.7220196    3.9943066    3.0289334     10.74526 
   24000           48    655.63561    4794.1007    1526.8365    1529.9724     649.1269    10.234782    2.8807059    3.7727801    3.9958338    2.9756744    10.744288 
   26000           52    624.45066    1847.0027     1525.824    1530.0127    649.01177   -21.386256    2.8807316     3.831033    4.0053544     2.967051    10.803438 
   28000           56    641.64278   -3587.8027     1534.854     1530.075    649.58128    9.0459211    2.8807708    3.7843762    4.0352787    2.9716369    10.791292 
   30000           60    593.10439   -5661.2495    1534.8025    1530.0793    649.27403    6.2960422    2.8807741    3.9361557    4.0629565    2.9607352    10.959847 
   32000           64    609.35732    7094.3648    1526.2092    1530.1124    648.72661   -8.3362454    2.8807948    3.8348249     4.033812     3.039296    10.907933 
   34000           68    687.91654    725.75196    1531.9158    1530.0553    647.81395    3.0026359    2.8807593    4.0571228     3.954382    3.0647184    11.076223 
   36000           72    601.14628   -6561.0651    1535.6116    1530.0465    647.25499    1.9316824    2.8807527    4.0477374    3.9492339    3.0559585     11.05293 
   38000           76    622.27227     14237.83    1513.4756    1529.9826    646.13735   -1.8533755    2.8807127    4.0421825    3.9094363    3.1194232    11.071042 
   40000           80    672.76202    9074.6498    1524.8101    1530.0016    646.14101   -1.5673709    2.8807249    4.0630522    3.9862556    3.1955165    11.244824 
   42000           84    738.00977    10594.747    1523.6901    1530.0083     646.7234      5.84877    2.8807286    3.9095214     3.970099    3.1465534    11.026174 
   44000           88    674.49031     2833.081    1527.3207    1530.0836     648.0016     12.61517    2.8807758    4.1859406    4.0580819    3.1670564    11.411079 
   46000           92     668.7652   -6320.0836    1537.3871    1530.0883    648.05215    1.0047198     2.880779    4.1941349    4.1029338    3.1727669    11.469836 
   48000           96    661.55085    3216.9521    1527.8484    1530.0815    647.77762    6.2841785    2.8807747    4.2175825    3.9901092     3.112928     11.32062 
   50000          100    698.93427   -8611.6475    1543.3208    1530.1102     648.1319    1.0278587    2.8807931    4.2160233    4.2148962    3.2205841    11.651504 
   52000          104     559.0548   -4516.3046    1534.1542    1530.1068     648.2627 -0.058034297    2.8807907    4.1349396     4.143352     3.297625    11.575917 
   54000          108    602.36038   -1728.9408    1528.2374    1530.0687    647.60599   0.22550756    2.8807667    4.1741163    4.1404047    3.2712015    11.585722 
   56000          112    607.84642    3305.5868    1523.6322    1530.0206    646.90925    2.6220663    2.8807368    4.1518137    4.0626754    3.3048493    11.519338 
   58000          116    696.83464   -14647.672    1548.6569    1529.9953    646.79418   -1.6699641    2.8807213    4.3954518    4.1604209    3.2093492    11.765222 
   60000          120    590.45105   -1483.6138    1529.1898    1529.9723    646.87831  -0.76799098    2.8807067    4.2970376    4.0638168    3.2979138    11.658768 
   62000          124    628.75684    15136.646    1513.8912    1529.9968    647.45369   -4.2572246    2.8807223    4.2634177    4.0475918    3.2700204     11.58103 
   64000          128    630.46853    7194.7485    1524.8653    1530.0063    647.78804    3.0803329    2.8807283    4.3054306    4.0938742    3.2640535    11.663358 
   66000          132    673.81677   -1758.7708    1533.8025    1530.0322    648.21985    5.4144458    2.8807443    4.4735284    4.1209075    3.2334373    11.827873 
   68000          136    627.51981    -5904.992    1532.0449    1530.0225    648.01728    4.9844858    2.8807383    4.5496093    4.1046459    3.3114708    11.965726 
   70000          140    674.25825   -2127.4687    1531.2001    1530.0255    648.09325   0.17284023    2.8807402    4.3966195    4.0791935    3.3424788    11.818292 
   72000          144    600.50949   -679.73783    1528.7895     1530.027    647.97277   0.58633233    2.8807415      4.56776    4.1015352    3.3167576    11.986053 
   74000          148    607.48207    563.65007    1526.4864    1530.0248    648.04659   0.81425783    2.8807401    4.5695683    4.1726708    3.3504173    12.092656 
   76000          152    685.10968    5107.1658    1528.1336    1530.0184    648.17386   0.24771647    2.8807364    4.5711879    4.1320159    3.3454813    12.048685 
   78000          156    770.70268    1602.6062    1528.8242    1530.0623    648.84377  -0.13392828    2.8807639    4.6081895    4.1898815    3.3354292      12.1335 
   80000          160     617.5179   -6292.2971    1538.1086    1530.0723    649.12251   -1.9673268    2.8807701    4.9656543    4.3554339    3.6515322     12.97262 
   82000          164    681.47726   -688.81174    1525.5107    1530.0923    649.53912   -2.7708061    2.8807829    5.0291223    4.2617359    3.5803692    12.871227 
   84000          168    687.27132    13342.815    1518.3723    1530.0962    649.71661   0.21533503    2.8807854    4.9749147    4.3051762    3.6532947    12.933386 
   86000          172    615.57993   -14239.884    1547.4024    1530.1168     650.0003    1.9130599    2.8807982    4.9915875    4.3420669    3.6820568    13.015711 
   88000          176    703.39809    23026.195    1508.4904    1530.0969    649.57539    1.3027794    2.8807858    4.9840739    4.1504058    3.6711466    12.805626 
   90000          180    616.15626    4011.5219    1523.9656    1530.0875     649.2873  -0.95912758    2.8807798    4.9253771    4.2292289    3.6574951    12.812101 
   92000          184    660.25109   -9411.0044    1535.3069    1530.0724    648.90773     1.399263    2.8807703    4.9662452     4.262692    3.6397002    12.868637 
   94000          188    637.21294    -8781.168    1537.0933    1530.0953     649.1992  0.097231159    2.8807848    4.9988602    4.2661026    3.6777575     12.94272 
   96000          192     632.3613   -15477.323    1546.4329    1530.0998    649.46561  0.093842485    2.8807876    5.1601466    4.2183568    3.6974417    13.075945 
   98000          196    695.69527    -9077.581    1538.8854    1530.1209    649.66432   -3.4072107    2.8808008    5.1178318    4.2797305    3.9748404    13.372403 
[...]
   36000           72     972.1694    4142.0079    1540.3769    1548.3625    955.79579   0.80685337    2.8921979    74.357465    62.697505    65.720065    202.77504 
   38000           76    915.95614    5174.5261    1538.1091    1548.3619    955.56555   -15.774435    2.8921979    74.520141    62.473443    65.730871    202.72445 
   40000           80    956.24682   -624.80575    1549.1386    1548.2663    954.53015   0.77602379    2.8921385    73.737129    63.439876    66.736557    203.91356 
   42000           84    1106.3827    26306.412    1522.0375     1548.276    954.67742   -4.5579446    2.8921441    73.454952    62.828631    65.293106    201.57669 
   44000           88    1093.0627   -1915.2294    1555.3643     1548.265    954.80299    4.6736603    2.8921372    74.638747    63.863096    66.086921    204.58876 
   46000           92    959.77071   -9897.9283    1560.6835    1548.3707    956.10585    5.3279129    2.8922027    74.646541    64.187435    66.724269    205.55824 
   48000           96    878.65487   -960.97665    1547.8165    1548.3669    955.89863   -5.0919566    2.8922006    73.910212    63.460418    65.896805    203.26743 
   50000          100    1031.4646    4693.3358    1544.5014    1548.3476    955.52386   -7.4084748    2.8921886     73.39751    62.822943    66.141057    202.36151 
   52000          104    923.30438     7147.267    1537.7683    1548.2736    954.65276    2.4937899    2.8921422    73.041863     62.67735    65.495243    201.21446 
   54000          108    814.37313   -8459.8745    1553.6288    1548.1888    953.05334   -6.3343464    2.8920898    73.566817    63.437822    66.240337    203.24498 
   56000          112    1017.0339    16741.565    1535.6852    1548.1546    952.45896   -5.7960305     2.892068    73.056026     64.12745    66.447006    203.63048 
   58000          116    1003.6312   -8720.0752    1555.3692    1548.1529    952.33343    -1.435569    2.8920674    73.957487    64.699332    66.786967    205.44379 
   60000          120    1033.0326   -14779.671    1569.3883    1548.1525    952.29233   -1.2712458    2.8920668    75.025787    65.042534    67.534235    207.60256 
   62000          124    891.44897    6107.4797     1534.303    1548.1289    951.86721   -12.326021    2.8920521    73.819763    63.816471    65.935066     203.5713 
   64000          128    985.15676    2956.5663    1542.9809     1548.053    950.94404    -4.387592    2.8920048    73.740775    64.549545    66.325313    204.61563 
   66000          132    1006.8296    24291.632    1525.0063    1548.0026    950.33973  -0.51431855    2.8919734    73.683069     63.68065    65.404064    202.76778 
   68000          136    878.81493   -14605.976    1564.9095    1547.9926    949.92784    3.3443134    2.8919669     74.32046    64.862156    66.510479     205.6931 
   70000          140    875.92254   -137.36691    1541.7761    1547.9415    949.01213   -5.3139981    2.8919354    73.812935    64.024722    65.692361    203.53002 
   72000          144    848.97979    11632.173       1532.3    1547.8983    948.25877  -0.27451782    2.8919081    72.823071    64.077974    65.032902    201.93395 
   74000          148    903.72236   -5167.8954    1553.1517    1547.8753    947.72936    3.6313564    2.8918933    73.286311    64.967529    66.016287    204.27013 
   76000          152    1006.0161   -19857.453    1566.5963    1547.9077    948.02432   -2.1528568    2.8919136    73.669824    65.117232    66.641183    205.42824 
   78000          156    929.11867   -8814.9486    1568.8362    1547.9585    948.92778   -1.8130423    2.8919452      73.7838    64.309943      66.4098    204.50354 
   80000          160     881.3308   -7333.0629      1561.94    1548.0005    949.56345   0.42203696    2.8919713    73.414162    64.275029    65.942931    203.63212 
   82000          164    855.47086    19485.887    1521.4071    1548.0053    949.64194    -5.111312    2.8919743    70.974681    63.035445    64.738201    198.74833 
   84000          168    972.22029    10066.419    1542.1086    1548.0128    949.92818  -0.66807816    2.8919789    71.816517    63.977167     65.98518    201.77886 
   86000          172    1020.1501    13112.304    1535.8834    1548.0731     950.7676     3.826732     2.892016    71.195116    63.462817    65.595096    200.25303 
   88000          176    945.72305    8428.4959    1534.7637    1548.0995    950.97601    1.1264528    2.8920325    71.500242    63.792149    65.387357    200.67975 
   90000          180    1035.1853    11492.671    1529.6475    1548.1429     951.6832    1.1110962    2.8920595    71.487515    62.927525    65.522849    199.93789 
   92000          184    1033.4592   -2269.1696    1545.4296    1548.1372     951.7667    3.7699719     2.892056    71.608845    64.419882    65.830126    201.85885 
   94000          188     1032.241   -8843.8724    1561.2268    1548.1622    952.14174    1.5260975    2.8920716    72.815345    64.504307    66.222672    203.54232 
   96000          192    928.66285    6126.9504    1538.5223    1548.1557    951.91962   -6.1848815    2.8920678    72.192213    63.944499    65.371199    201.50791 
   98000          196    1008.4539    7077.4977    1540.3526    1548.1215    951.52367    1.7134247    2.8920465    72.034945    64.535199    65.657177    202.22732 
----FINISHED: 39/40 ---- T=950 -----
  100000          200    962.53373       8809.9    1541.3537    1548.1245    951.59328   0.99141096    2.8920484    71.805039    64.697188    65.632722    202.13495 
Loop time of 18.4039 on 4 procs for 100000 steps with 129 atoms

Performance: 938.933 ns/day, 0.026 hours/ns, 5433.640 timesteps/s
97.9% CPU use with 4 MPI tasks x 1 OpenMP threads

MPI task timing breakdown:
Section |  min time  |  avg time  |  max time  |%varavg| %total
---------------------------------------------------------------
Pair    | 8.6053     | 8.8972     | 9.2118     |   7.7 | 48.34
Neigh   | 0.031571   | 0.032754   | 0.033675   |   0.4 |  0.18
Comm    | 2.8935     | 3.1951     | 3.4692     |  12.1 | 17.36
Output  | 4.174      | 4.1821     | 4.1968     |   0.4 | 22.72
Modify  | 1.8197     | 1.8252     | 1.8376     |   0.5 |  9.92
Other   |            | 0.2714     |            |       |  1.47

Nlocal:    32.25 ave 33 max 32 min
Histogram: 3 0 0 0 0 0 0 0 0 1
Nghost:    861.75 ave 862 max 861 min
Histogram: 1 0 0 0 0 0 0 0 0 3
Neighs:    2231 ave 2448 max 2109 min
Histogram: 1 1 1 0 0 0 0 0 0 1

Total # of neighbors = 8924
Ave neighs/atom = 69.1783
Neighbor list builds = 464
Dangerous builds = 0
System init for write_data ...
Setting up Verlet run ...
  Unit style    : metal
  Current step  : 100000
  Time step     : 0.002
Per MPI rank memory allocation (min/avg/max) = 66.79 | 66.79 | 66.79 Mbytes
Step Temp PotEng TotEng Press Volume Lx 
  100000          950   -495.51767   -479.79963    8666.1951    1541.3537    11.551386 
  102000    1031.5369   -496.04479    -478.9777   -3708.5394    1553.4318     11.58148 
  104000    850.48807   -492.41901   -478.34743   -689.23763    1560.7977    11.599757 
  106000    989.72925   -495.39238   -479.01701    15955.101    1534.4959    11.534229 
  108000    1008.6194   -496.99608   -480.30817    7112.5379    1543.8459    11.557609 
  110000    1065.2959   -497.20997   -479.58434     3548.587    1546.9783     11.56542 
  112000    890.79142   -495.53133   -480.79292   -28289.336    1582.1478    11.652408 
  114000    946.92297   -497.36641   -481.69929   -2791.2436    1548.5685    11.569381 
  116000    1049.6614   -495.61264   -478.24568   -9294.5055      1565.87    11.612309 
  118000    1084.0916    -496.1752   -478.23858    -2645.132    1549.2888    11.571175 
  120000    911.79075   -497.59299   -482.50714    8227.0268    1537.1532    11.540883 
  122000    941.16332   -496.20122   -480.62939   -4537.9292    1555.7006    11.587116 
  124000     933.4232   -496.49736   -481.05359   -24633.391    1572.4686    11.628597 
  126000    948.55411   -494.95489   -479.26078    4236.7479    1548.4357    11.569051 
  128000    882.81123    -495.3968   -480.79042    8734.4344    1540.5456    11.549367 
  130000    917.66277   -496.22418   -481.04117    13583.855    1533.7189    11.532282 
  132000    880.36431   -498.13588   -483.56999   -9295.6477    1548.6535    11.569593 
  134000     973.3876   -497.33316   -481.22817   -15385.192    1564.8021    11.609668 
  136000    892.11436   -495.53803   -480.77774     9060.257    1539.0385      11.5456 
  138000    1023.0435   -495.61021   -478.68365   -5253.1051    1555.4521    11.586499 
  140000    1119.9042   -494.93346   -476.40431   -12873.251    1569.7261    11.621833 
  142000    921.96342   -496.91241   -481.65825   -17007.957    1568.0348    11.617657 
  144000    949.81572   -497.03426   -481.31927    11546.915    1539.6344     11.54709 
  146000    937.73944   -496.39392   -480.87874     12099.34    1534.9261    11.535307 
  148000    948.52653    -494.2819   -478.58824   -5905.2234     1558.652    11.594438 
  150000    1010.1153   -497.18052   -480.46786   -15489.039    1560.1936     11.59826 
Loop time of 8.78681 on 4 procs for 50000 steps with 129 atoms

Performance: 983.292 ns/day, 0.024 hours/ns, 5690.347 timesteps/s
97.7% CPU use with 4 MPI tasks x 1 OpenMP threads

MPI task timing breakdown:
Section |  min time  |  avg time  |  max time  |%varavg| %total
---------------------------------------------------------------
Pair    | 4.2987     | 4.4357     | 4.5844     |   5.1 | 50.48
Neigh   | 0.016521   | 0.017135   | 0.017673   |   0.3 |  0.20
Comm    | 1.4256     | 1.5738     | 1.708      |   8.4 | 17.91
Output  | 2.0968     | 2.101      | 2.1084     |   0.3 | 23.91
Modify  | 0.52063    | 0.52716    | 0.53048    |   0.5 |  6.00
Other   |            | 0.132      |            |       |  1.50

Nlocal:    32.25 ave 33 max 32 min
Histogram: 3 0 0 0 0 0 0 0 0 1
Nghost:    856.5 ave 859 max 854 min
Histogram: 1 0 1 0 0 0 0 0 1 1
Neighs:    2213 ave 2298 max 2098 min
Histogram: 1 0 0 1 0 0 0 0 0 2

Total # of neighbors = 8852
Ave neighs/atom = 68.6202
Neighbor list builds = 244
Dangerous builds = 0
----STARTING----
Setting up Verlet run ...
  Unit style    : metal
  Current step  : 0
  Time step     : 0.002
Per MPI rank memory allocation (min/avg/max) = 68.41 | 68.41 | 68.41 Mbytes
Step v_my_time Temp Press Volume f_ave_vol f_ave_temp f_ave_press f_ave_latcon c_msdFe_8[1] c_msdFe_8[2] c_msdFe_8[3] c_msdFe_8[4] 
       0            0    1010.1153   -15489.039    1560.1936            0            0            0            0    79.735474    66.270812    67.405912     213.4122 
    2000            4    861.62053   -9060.5501    1561.1296    1546.7573    928.38966   -64.099808     2.891209    79.796638    66.705762    67.457883    213.96028 
    4000            8    963.54724    8039.5561    1542.8797    1546.9064    931.97114    2.6652119    2.8912818    79.386423    66.289896    67.990898    213.66722 
    6000           12    926.65916    12239.096    1530.8472    1547.2713    937.41948    111.56643    2.8915103    79.645844    64.945574      66.6559    211.24732 
    8000           16    1042.1907   -16179.002    1570.0955    1547.8109    944.75735    58.879124    2.8918485    81.707141     66.06569    67.913694    215.68652 
   10000           20      926.521    5660.4368    1542.0082    1548.1646    949.56587    21.930823    2.8920661    80.767695    65.680527     66.63922    213.08744 
   12000           24      994.711     5733.235    1542.4507    1548.0928    949.09211    45.395861    2.8920205    81.095738     64.96194    66.866408    212.92409 
   14000           28    997.98362    14996.618    1532.3634    1547.6525    944.05781    52.158633    2.8917485    80.576901    64.979704    66.170605    211.72721 
   16000           32    925.70118   -7853.7669    1554.7173    1547.6179    942.96148    34.200254     2.891728    81.671713    65.689908    67.451434    214.81306 
   18000           36       959.45   -14930.847    1564.8054     1547.634    942.90262    10.735715    2.8917389    81.715992    65.385376    67.270586    214.37195 
   20000           40    986.03133    7064.9034    1543.5214    1547.7177    943.98765    18.942806     2.891792    81.085711    65.312847    66.791592    213.19015 
   22000           44    1008.6152    18082.985    1525.7865    1547.8241    946.08589    36.778483    2.8918573    80.756999    64.869043    67.144866    212.77091 
   24000           48    906.94516   -7187.7311    1553.7175    1547.9169    947.05139    -12.38203    2.8919149    82.728874    64.945209    67.742941    215.41702 
   26000           52    1015.4508     16528.66    1539.2929    1548.0031    948.85272    17.782338    2.8919686    82.521564    63.874248    67.502577    213.89839 
   28000           56    1022.2401    6169.2395    1542.8515    1548.2019    951.98047    30.972868     2.892093    82.125321    64.420346    67.346063    213.89173 
   30000           60    898.98392   -9973.0916    1553.8283    1548.2105    952.51457    25.973389    2.8920974    82.644259    64.811595    67.518085    214.97394 
   32000           64    957.29185   -7720.3772    1559.2132    1548.2213    952.57607    10.838022    2.8921036    82.446489    65.032948    66.937463     214.4169 
   34000           68    921.71197   -14206.944    1564.3565    1548.1874    952.10969    12.769427    2.8920833    82.757551    64.968209    68.196293    215.92205 
   36000           72    914.47013   -6288.7716     1549.394    1548.0649    950.23902    7.2020568    2.8920073    82.258927    64.717916    67.273644    214.25049 
   38000           76    833.06146    6663.8884    1533.6958    1547.9438    948.62416    14.109899    2.8919313    81.987784    64.363188    67.049496    213.40047 
   40000           80    943.68664    5792.5695    1539.1786    1547.8784    947.72178    23.429069    2.8918905    82.580092    64.122218    67.336265    214.03858 
   42000           84    984.14253   -27738.315    1581.2169    1547.8098    946.76995    21.954954     2.891848    83.625559    65.892277    68.271637    217.78947 
   44000           88    964.27987   -13244.922    1563.2604    1547.7823    946.03043    17.648995    2.8918304     82.92941    65.591062    67.588606    216.10908 
   46000           92     1059.441   -3973.8838    1547.2823    1547.8007    946.28273    16.620178    2.8918428    83.051269    65.054352    67.173402    215.27902 
   48000           96    960.19665   -13643.547     1565.776      1547.71    944.87245    6.9123386    2.8917867    83.845453     65.17481    69.003883    218.02415 
   50000          100    939.25318   -1201.2719    1549.7796    1547.7128    944.78633    10.587788    2.8917878    83.038728    64.768244    67.860562    215.66753 
   52000          104    886.97549    14548.693    1531.5055    1547.6545    943.91402    5.1461129    2.8917518    82.012054    64.847993    68.179664    215.03971 
   54000          108    973.95125    1562.3271    1542.3703    1547.7014      944.633    15.131505    2.8917813    82.744569    64.988683    68.331808    216.06506 
   56000          112    955.97048    486.03833    1540.7471    1547.7535    945.52945    13.190594    2.8918144    82.184268    65.602678    67.998764    215.78571 
   58000          116     852.6468   -12498.237     1560.191    1547.7489    945.39069    16.504843    2.8918116    83.190885    66.202515     68.89739    218.29079 
   60000          120    961.77949    23.334051     1550.512    1547.7324     945.0531    6.7173755    2.8918019    82.849675    66.379079    69.117344     218.3461 
   62000          124    889.57209     6209.629    1541.2899    1547.6986    944.43951    2.7397017    2.8917809    82.774923    66.213493    68.619332    217.60775 
   64000          128    936.36096   -16403.843    1561.7039    1547.6859    944.37718    11.462043    2.8917734     83.14412    65.987666    69.748072    218.87986 
   66000          132    943.89638   -4883.2069    1552.9841    1547.6901    944.17786    7.0842485     2.891776    82.901856    66.303572    69.760028    218.96546 
   68000          136     955.2554    -18315.84    1567.9203    1547.6549     943.6432   -4.4516114    2.8917544    84.044847    66.222809    70.421466    220.68912 
   70000          140    913.62839    7227.5778    1535.2559    1547.6464    943.45987    5.6430993    2.8917484    82.631676    65.566768    69.103993    217.30244 
   72000          144    885.35581   -13930.457    1561.6536    1547.5994    942.66913    7.0357598    2.8917195       84.182    65.690275    69.914594    219.78687 
   74000          148    926.37148    -1791.614    1540.9546    1547.5881    942.40852    4.7344895    2.8917128     84.14128    65.366258      69.3363    218.84384 
   76000          152     901.2793    5861.4384    1539.5723    1547.5343     941.7639    5.2900034    2.8916798    83.173357    65.255435    70.261806     218.6906 
   78000          156    982.02922   -19553.489    1573.5035    1547.5171     941.4567  -0.65819772    2.8916693    84.529214     65.60518    70.279543    220.41394 
   80000          160    1080.4948   -10816.666    1559.0703    1547.5064    941.30144   -1.2617744    2.8916627     84.07975      65.3991    69.707399    219.18625 
   82000          164     1006.447   -962.99772    1555.7644    1547.5746       942.38   -3.0017354    2.8917055    83.854283    65.518462    70.002325    219.37507 
   84000          168     1024.374    18575.403    1529.4691    1547.5889    942.57508   0.86032774    2.8917144    83.150456    64.575455    69.517691     217.2436 
   86000          172    1038.4676    3550.0386    1541.8109    1547.6033    942.83293    3.3208427     2.891723    84.085696    64.182612    69.877526    218.14583 
   88000          176    967.23094    713.16896    1552.5595    1547.5868    942.66257     6.106878    2.8917123    84.860652    65.349951    70.025938    220.23654 
   90000          180    998.47154   -12643.111    1564.7858    1547.5773    942.38849     4.003857    2.8917063    84.668923    65.366354    70.534962    220.57024 
   92000          184    875.54097   -2276.2452    1548.4169    1547.5706    942.40553    3.0289848    2.8917025    84.369746    65.143857    69.659921    219.17352 
   94000          188    942.53854   -8064.3212    1552.8966    1547.5652    942.29409    3.2399469    2.8916991    84.995712    64.812081    70.046446    219.85424 
   96000          192    940.38237   -7725.4354    1553.6871    1547.5663    942.48208   0.88652768    2.8917002    84.975031    64.532356    69.871451    219.37884 
   98000          196    1012.3717   -15151.461    1570.1161    1547.5887    942.71766   -1.7680212    2.8917139    85.491965    65.644647    70.235182    221.37179 
----FINISHED: 40/40 ---- T=950 -----
  100000          200    884.96139    10346.687    1537.0172    1547.6218    943.28698    1.3800159    2.8917345    84.769584    64.451503    69.644451    218.86554 
Loop time of 18.5383 on 4 procs for 100000 steps with 129 atoms

Performance: 932.125 ns/day, 0.026 hours/ns, 5394.244 timesteps/s
97.9% CPU use with 4 MPI tasks x 1 OpenMP threads

MPI task timing breakdown:
Section |  min time  |  avg time  |  max time  |%varavg| %total
---------------------------------------------------------------
Pair    | 8.6324     | 8.9226     | 9.2304     |   7.2 | 48.13
Neigh   | 0.032437   | 0.033497   | 0.034392   |   0.4 |  0.18
Comm    | 2.8204     | 3.1272     | 3.4122     |  12.1 | 16.87
Output  | 4.3126     | 4.3209     | 4.3358     |   0.4 | 23.31
Modify  | 1.8432     | 1.8591     | 1.8673     |   0.7 | 10.03
Other   |            | 0.275      |            |       |  1.48

Nlocal:    32.25 ave 33 max 32 min
Histogram: 3 0 0 0 0 0 0 0 0 1
Nghost:    861.75 ave 864 max 859 min
Histogram: 1 0 1 0 0 0 0 0 0 2
Neighs:    2245.25 ave 2375 max 2121 min
Histogram: 1 0 1 0 0 0 0 1 0 1

Total # of neighbors = 8981
Ave neighs/atom = 69.6202
Neighbor list builds = 475
Dangerous builds = 0
System init for write_data ...
Total wall time: 0:16:31
