------------------ Task 6 start ------------------
---- Iteration: 1 ---- k=4 ----
Energy: -4.1239 eV ---- Time: 1.89 s
---- Iteration: 2 ---- k=8 ----
Energy: -4.1744 eV ---- Time: 4.21 s
---- Iteration: 3 ---- k=12 ----
Energy: -4.1694 eV ---- Time: 10.53 s
---- Iteration: 4 ---- k=16 ----
Energy: -4.1704 eV ---- Time: 23.42 s
---- Iteration: 5 ---- k=20 ----
Energy: -4.1713 eV ---- Time: 40.74 s
---- Iteration: 6 ---- k=24 ----
Energy: -4.1706 eV ---- Time: 68.09 s
---- Iteration: 7 ---- k=28 ----
Energy: -4.1708 eV ---- Time: 105.91 s
---- Iteration: 8 ---- k=32 ----
Energy: -4.1708 eV ---- Time: 155.39 s
Written to DB
Optimal k-parameter: k=36
Calculator saved
Electronic structure calculation started

  ___ ___ ___ _ _ _  
 |   |   |_  | | | | 
 | | | | | . | | | | 
 |__ |  _|___|_____|  19.8.1
 |___|_|             

User:   ericlin@hebbe17-7
Date:   Thu Mar  5 12:39:34 2020
Arch:   x86_64
Pid:    1364
Python: 3.7.2
gpaw:   /apps/Hebbe7/software/MPI/intel/2019.1.144-GCC-8.2.0-2.31.1/impi/2018.4.274/GPAW/19.8.1-Python-3.7.2/lib/python3.7/site-packages/gpaw
_gpaw:  /apps/Hebbe7/software/MPI/intel/2019.1.144-GCC-8.2.0-2.31.1/impi/2018.4.274/GPAW/19.8.1-Python-3.7.2/bin/
        gpaw-python
ase:    /apps/Hebbe7/software/MPI/intel/2019.1.144-GCC-8.2.0-2.31.1/impi/2018.4.274/ASE/3.18.0-Python-3.7.2/lib/python3.7/site-packages/ase (version 3.18.0)
numpy:  /apps/Hebbe7/software/MPI/intel/2019.1.144-GCC-8.2.0-2.31.1/impi/2018.4.274/SciPy-bundle/2019.03/lib/python3.7/site-packages/numpy (version 1.16.2)
scipy:  /apps/Hebbe7/software/MPI/intel/2019.1.144-GCC-8.2.0-2.31.1/impi/2018.4.274/SciPy-bundle/2019.03/lib/python3.7/site-packages/scipy (version 1.2.1)
libxc:  4.3.4
units:  Angstrom and eV
cores:  1

Reading from Al_calc.gpw
Read dipole, energy, free_energy
Reading input parameters:
  kpts: [32 32 32]
  mode: {ecut: 300.0,
         gammacentered: False,
         name: pw}

Initialize ...

Al-setup:
  name: Aluminium
  id: 2e6447feaea722efcff26bf034b25f30
  Z: 13
  valence: 3
  core: 10
  charge: 0.0
  file: /apps/Common/Core/GPAW-setups/0.9.20000/Al.LDA.gz
  compensation charges: gauss, rc=0.34, lmax=2
  cutoffs: 1.91(filt), 2.36(core),
  valence states:
                energy  radius
    3s(2.00)    -7.830   1.085
    3p(1.00)    -2.783   1.085
    *s          19.382   1.085
    *p          24.428   1.085
    *d           0.000   1.085

  Using partial waves for Al as LCAO basis

Reference energy: -6578.421307

Spin-paired calculation

Occupation numbers:
  Fermi-Dirac: width=0.1000 eV

Convergence criteria:
  Maximum total energy change: 0.0005 eV / electron
  Maximum integral of absolute density change: 0.0001 electrons
  Maximum integral of absolute eigenstate change: 4e-08 eV^2
  Maximum number of iterations: 333

Symmetries present (total): 48

  ( 1  0  0)  ( 1  0  0)  ( 1  0  0)  ( 1  0  0)  ( 1  0 -1)  ( 1  0 -1)
  ( 1  0 -1)  ( 1 -1  0)  ( 0  1  0)  ( 0  0  1)  ( 1  0  0)  ( 1 -1  0)
  ( 1 -1  0)  ( 1  0 -1)  ( 0  0  1)  ( 0  1  0)  ( 1 -1  0)  ( 1  0  0)

  ( 1  0 -1)  ( 1  0 -1)  ( 1 -1  0)  ( 1 -1  0)  ( 1 -1  0)  ( 1 -1  0)
  ( 0  1 -1)  ( 0  0 -1)  ( 1  0  0)  ( 1  0 -1)  ( 0 -1  1)  ( 0 -1  0)
  ( 0  0 -1)  ( 0  1 -1)  ( 1  0 -1)  ( 1  0  0)  ( 0 -1  0)  ( 0 -1  1)

  ( 0  1  0)  ( 0  1  0)  ( 0  1  0)  ( 0  1  0)  ( 0  1 -1)  ( 0  1 -1)
  ( 1  0  0)  ( 0  1 -1)  ( 0  0  1)  (-1  1  0)  ( 1  0 -1)  ( 0  1  0)
  ( 0  0  1)  (-1  1  0)  ( 1  0  0)  ( 0  1 -1)  ( 0  0 -1)  (-1  1  0)

  ( 0  1 -1)  ( 0  1 -1)  ( 0  0  1)  ( 0  0  1)  ( 0  0  1)  ( 0  0  1)
  ( 0  0 -1)  (-1  1  0)  ( 1  0  0)  ( 0  1  0)  ( 0 -1  1)  (-1  0  1)
  ( 1  0 -1)  ( 0  1  0)  ( 0  1  0)  ( 1  0  0)  (-1  0  1)  ( 0 -1  1)

  ( 0  0 -1)  ( 0  0 -1)  ( 0  0 -1)  ( 0  0 -1)  ( 0 -1  1)  ( 0 -1  1)
  ( 1  0 -1)  ( 0  1 -1)  ( 0 -1  0)  (-1  0  0)  ( 1 -1  0)  ( 0  0  1)
  ( 0  1 -1)  ( 1  0 -1)  (-1  0  0)  ( 0 -1  0)  ( 0 -1  0)  (-1  0  1)

  ( 0 -1  1)  ( 0 -1  1)  ( 0 -1  0)  ( 0 -1  0)  ( 0 -1  0)  ( 0 -1  0)
  ( 0 -1  0)  (-1  0  1)  ( 1 -1  0)  ( 0  0 -1)  ( 0 -1  1)  (-1  0  0)
  ( 1 -1  0)  ( 0  0  1)  ( 0 -1  1)  (-1  0  0)  ( 1 -1  0)  ( 0  0 -1)

  (-1  1  0)  (-1  1  0)  (-1  1  0)  (-1  1  0)  (-1  0  1)  (-1  0  1)
  ( 0  1  0)  ( 0  1 -1)  (-1  0  1)  (-1  0  0)  ( 0  0  1)  ( 0 -1  1)
  ( 0  1 -1)  ( 0  1  0)  (-1  0  0)  (-1  0  1)  ( 0 -1  1)  ( 0  0  1)

  (-1  0  1)  (-1  0  1)  (-1  0  0)  (-1  0  0)  (-1  0  0)  (-1  0  0)
  (-1  1  0)  (-1  0  0)  ( 0  0 -1)  ( 0 -1  0)  (-1  1  0)  (-1  0  1)
  (-1  0  0)  (-1  1  0)  ( 0 -1  0)  ( 0  0 -1)  (-1  0  1)  (-1  1  0)
Note: your k-points are not as symmetric as your crystal!

32768 k-points: 32 x 32 x 32 Monkhorst-Pack grid
2992 k-points in the irreducible part of the Brillouin zone
       k-points in crystal coordinates                weights
   0:     0.01562500    0.01562500   -0.01562500          6/32768
   1:     0.01562500    0.01562500    0.01562500          2/32768
   2:     0.04687500   -0.01562500   -0.01562500          6/32768
   3:     0.04687500    0.01562500   -0.04687500         12/32768
   4:     0.04687500    0.01562500   -0.01562500         12/32768
   5:     0.04687500    0.01562500    0.01562500          6/32768
   6:     0.04687500    0.04687500   -0.04687500          6/32768
   7:     0.04687500    0.04687500   -0.01562500          6/32768
   8:     0.04687500    0.04687500    0.01562500          6/32768
   9:     0.04687500    0.04687500    0.04687500          2/32768
          ...
2991:     0.48437500    0.48437500    0.48437500          2/32768

Wave functions: Plane wave expansion
  Cutoff energy: 300.000 eV
  Number of coefficients (min, max): 176, 204
  Pulay-stress correction: 0.000000 eV/Ang^3 (de/decut=0.000000)
  Using FFTW library
  ScaLapack parameters: grid=1x1, blocksize=None
  Wavefunction extrapolation:
    Improved wavefunction reuse through dual PAW basis 

Eigensolver
   Davidson(niter=2, smin=None, normalize=True) 

Densities:
  Coarse grid: 12*12*12 grid
  Fine grid: 24*24*24 grid
  Total Charge: 0.000000 

Density mixing:
  Method: separate
  Backend: pulay
  Linear mixing parameter: 0.05
  Mixing with 5 old densities
  Damping of long wave oscillations: 50 

Hamiltonian:
  XC and Coulomb potentials evaluated on a 24*24*24 grid
  Using the LDA Exchange-Correlation functional
 

Memory estimate:
  Process memory now: 263.91 MiB
  Calculator: 112.18 MiB
    Density: 0.68 MiB
      Arrays: 0.34 MiB
      Localized functions: 0.21 MiB
      Mixer: 0.13 MiB
    Hamiltonian: 0.23 MiB
      Arrays: 0.22 MiB
      XC: 0.00 MiB
      Poisson: 0.00 MiB
      vbar: 0.00 MiB
    Wavefunctions: 111.27 MiB
      Arrays psit_nG: 37.25 MiB
      Eigensolver: 0.03 MiB
      Projections: 2.37 MiB
      Projectors: 62.23 MiB
      PW-descriptor: 9.38 MiB

Total number of cores used: 1

Number of atoms: 1
Number of atomic orbitals: 4
Number of bands in calculation: 4
Bands to converge: occupied states only
Number of valence electrons: 3

... initialized

Input parameters:
  fixdensity: True
  kpts: {npoints: 60,
         path: GXWKGLUWLK,UX}
  symmetry: off

Initialize ...

Al-setup:
  name: Aluminium
  id: 2e6447feaea722efcff26bf034b25f30
  Z: 13
  valence: 3
  core: 10
  charge: 0.0
  file: /apps/Common/Core/GPAW-setups/0.9.20000/Al.LDA.gz
  compensation charges: gauss, rc=0.34, lmax=2
  cutoffs: 1.91(filt), 2.36(core),
  valence states:
                energy  radius
    3s(2.00)    -7.830   1.085
    3p(1.00)    -2.783   1.085
    *s          19.382   1.085
    *p          24.428   1.085
    *d           0.000   1.085

  Using partial waves for Al as LCAO basis

Reference energy: -6578.421307

Spin-paired calculation

Occupation numbers:
  Fixed Fermi level
  Fermi-Dirac: width=0.1000 eV

Convergence criteria:
  Maximum total energy change: 0.0005 eV / electron
  Maximum integral of absolute density change: 0.0001 electrons
  Maximum integral of absolute eigenstate change: 4e-08 eV^2
  Maximum number of iterations: 333

Symmetries present (total): 1

  ( 1  0  0)
  ( 0  1  0)
  ( 0  0  1)

60 k-points
60 k-points in the irreducible part of the Brillouin zone
       k-points in crystal coordinates                weights
   0:     0.00000000    0.00000000    0.00000000       0.01666667
   1:     0.06250000    0.00000000    0.06250000       0.01666667
   2:     0.12500000    0.00000000    0.12500000       0.01666667
   3:     0.18750000    0.00000000    0.18750000       0.01666667
   4:     0.25000000    0.00000000    0.25000000       0.01666667
   5:     0.31250000    0.00000000    0.31250000       0.01666667
   6:     0.37500000    0.00000000    0.37500000       0.01666667
   7:     0.43750000    0.00000000    0.43750000       0.01666667
   8:     0.50000000    0.00000000    0.50000000       0.01666667
   9:     0.50000000    0.06250000    0.56250000       0.01666667
          ...
  59:     0.50000000    0.00000000    0.50000000       0.01666667

Wave functions: Plane wave expansion
  Cutoff energy: 300.000 eV
  Number of coefficients (min, max): 176, 206
  Pulay-stress correction: 0.000000 eV/Ang^3 (de/decut=0.000000)
  Using FFTW library
  ScaLapack parameters: grid=1x1, blocksize=None
  Wavefunction extrapolation:
    Improved wavefunction reuse through dual PAW basis 

Eigensolver
   Davidson(niter=2, smin=None, normalize=True) 

No density mixing

Memory estimate:
  Process memory now: 268.16 MiB
  Calculator: 3.23 MiB
    Density: 0.68 MiB
      Arrays: 0.34 MiB
      Localized functions: 0.21 MiB
      Mixer: 0.13 MiB
    Hamiltonian: 0.23 MiB
      Arrays: 0.22 MiB
      XC: 0.00 MiB
      Poisson: 0.00 MiB
      vbar: 0.00 MiB
    Wavefunctions: 2.32 MiB
      Arrays psit_nG: 0.75 MiB
      Eigensolver: 0.03 MiB
      Projections: 0.05 MiB
      Projectors: 1.23 MiB
      PW-descriptor: 0.25 MiB

Total number of cores used: 1

Number of atoms: 1
Number of atomic orbitals: 4
Number of bands in calculation: 4
Bands to converge: occupied states only
Number of valence electrons: 3

... initialized

Initializing position-dependent things.

Creating initial wave functions:
  4 bands from LCAO basis set

                
                
                
       Al       
                
                
                
                

Positions:
   0 Al     0.000000    0.000000    0.000000    ( 0.0000,  0.0000,  0.0000)

Unit cell:
           periodic     x           y           z      points  spacing
  1. axis:    yes    0.000000    2.021500    2.021500    12     0.1945
  2. axis:    yes    2.021500    0.000000    2.021500    12     0.1945
  3. axis:    yes    2.021500    2.021500    0.000000    12     0.1945

  Lengths:   2.858833   2.858833   2.858833
  Angles:   60.000000  60.000000  60.000000

Effective grid spacing dv^(1/3) = 0.2122

                     log10-error:    total        iterations:
           time      wfs    density  energy       fermi  poisson
iter:   1  12:39:40  +1.12           -4.075207    32            
iter:   2  12:39:40  -2.49           -4.077076    30            
iter:   3  12:39:40  -3.77           -4.077120    31            
iter:   4  12:39:41  -4.84           -4.077123    30            
iter:   5  12:39:41  -5.87           -4.077124    32            
iter:   6  12:39:41  -6.89           -4.077124    30            
iter:   7  12:39:42  -7.90           -4.077124    30            

Converged after 7 iterations.

Dipole moment: (-0.000000, -0.000000, -0.000000) |e|*Ang

Energy contributions relative to reference atoms: (reference = -6578.421307)

Kinetic:         +4.147227
Potential:       -2.133402
External:        +0.000000
XC:              -6.073994
Entropy (-ST):   -0.022854
Local:           -0.005527
--------------------------
Free energy:     -4.088551
Extrapolated:    -4.077124

Fixed Fermi level: 6.95043

Showing only first 2 kpts
 Kpt  Band  Eigenvalues  Occupancy
  0     0     -4.15185    0.03333
  0     1     20.83458    0.00000
  0     2     20.83458    0.00000

  1     0     -4.01065    0.03333
  1     1     18.28502    0.00000
  1     2     18.28502    0.00000


No gap
Electronic band structure calculated
Input parameters:
  kpts: {size: (60, 60, 60)}

Initialize ...

Al-setup:
  name: Aluminium
  id: 2e6447feaea722efcff26bf034b25f30
  Z: 13
  valence: 3
  core: 10
  charge: 0.0
  file: /apps/Common/Core/GPAW-setups/0.9.20000/Al.LDA.gz
  compensation charges: gauss, rc=0.34, lmax=2
  cutoffs: 1.91(filt), 2.36(core),
  valence states:
                energy  radius
    3s(2.00)    -7.830   1.085
    3p(1.00)    -2.783   1.085
    *s          19.382   1.085
    *p          24.428   1.085
    *d           0.000   1.085

  Using partial waves for Al as LCAO basis

Reference energy: -6578.421307

Spin-paired calculation

Occupation numbers:
  Fixed Fermi level
  Fermi-Dirac: width=0.1000 eV

Convergence criteria:
  Maximum total energy change: 0.0005 eV / electron
  Maximum integral of absolute density change: 0.0001 electrons
  Maximum integral of absolute eigenstate change: 4e-08 eV^2
  Maximum number of iterations: 333

Symmetries present (total): 1

  ( 1  0  0)
  ( 0  1  0)
  ( 0  0  1)

216000 k-points: 60 x 60 x 60 Monkhorst-Pack grid
216000 k-points in the irreducible part of the Brillouin zone
       k-points in crystal coordinates                weights
   0:    -0.49166667   -0.49166667   -0.49166667          1/216000
   1:    -0.49166667   -0.49166667   -0.47500000          1/216000
   2:    -0.49166667   -0.49166667   -0.45833333          1/216000
   3:    -0.49166667   -0.49166667   -0.44166667          1/216000
   4:    -0.49166667   -0.49166667   -0.42500000          1/216000
   5:    -0.49166667   -0.49166667   -0.40833333          1/216000
   6:    -0.49166667   -0.49166667   -0.39166667          1/216000
   7:    -0.49166667   -0.49166667   -0.37500000          1/216000
   8:    -0.49166667   -0.49166667   -0.35833333          1/216000
   9:    -0.49166667   -0.49166667   -0.34166667          1/216000
          ...
215999:     0.49166667    0.49166667    0.49166667          1/216000

Wave functions: Plane wave expansion
  Cutoff energy: 300.000 eV
  Number of coefficients (min, max): 175, 204
  Pulay-stress correction: 0.000000 eV/Ang^3 (de/decut=0.000000)
  Using FFTW library
  ScaLapack parameters: grid=1x1, blocksize=None
  Wavefunction extrapolation:
    Improved wavefunction reuse through dual PAW basis 

Eigensolver
   Davidson(niter=2, smin=None, normalize=True) 

No density mixing

Memory estimate:
  Process memory now: 1226.03 MiB
  Calculator: 8031.74 MiB
    Density: 0.68 MiB
      Arrays: 0.34 MiB
      Localized functions: 0.21 MiB
      Mixer: 0.13 MiB
    Hamiltonian: 0.23 MiB
      Arrays: 0.22 MiB
      XC: 0.00 MiB
      Poisson: 0.00 MiB
      vbar: 0.00 MiB
    Wavefunctions: 8030.83 MiB
      Arrays psit_nG: 2689.45 MiB
      Eigensolver: 0.03 MiB
      Projections: 171.39 MiB
      Projectors: 4497.53 MiB
      PW-descriptor: 672.43 MiB

Total number of cores used: 1

Number of atoms: 1
Number of atomic orbitals: 4
Number of bands in calculation: 4
Bands to converge: occupied states only
Number of valence electrons: 3

