
  ___ ___ ___ _ _ _  
 |   |   |_  | | | | 
 | | | | | . | | | | 
 |__ |  _|___|_____|  19.8.1
 |___|_|             

User:   ericlin@hebbe12-10
Date:   Tue Mar  3 04:34:36 2020
Arch:   x86_64
Pid:    1221
Python: 3.7.2
gpaw:   /apps/Hebbe7/software/MPI/intel/2019.1.144-GCC-8.2.0-2.31.1/impi/2018.4.274/GPAW/19.8.1-Python-3.7.2/lib/python3.7/site-packages/gpaw
_gpaw:  /apps/Hebbe7/software/MPI/intel/2019.1.144-GCC-8.2.0-2.31.1/impi/2018.4.274/GPAW/19.8.1-Python-3.7.2/bin/
        gpaw-python
ase:    /apps/Hebbe7/software/MPI/intel/2019.1.144-GCC-8.2.0-2.31.1/impi/2018.4.274/ASE/3.18.0-Python-3.7.2/lib/python3.7/site-packages/ase (version 3.18.0)
numpy:  /apps/Hebbe7/software/MPI/intel/2019.1.144-GCC-8.2.0-2.31.1/impi/2018.4.274/SciPy-bundle/2019.03/lib/python3.7/site-packages/numpy (version 1.16.2)
scipy:  /apps/Hebbe7/software/MPI/intel/2019.1.144-GCC-8.2.0-2.31.1/impi/2018.4.274/SciPy-bundle/2019.03/lib/python3.7/site-packages/scipy (version 1.2.1)
libxc:  4.3.4
units:  Angstrom and eV
cores:  10

Input parameters:
  kpts: [8 8 8]
  mode: {ecut: 300.0,
         gammacentered: False,
         name: pw}
  random: True

System changes: positions, numbers, cell, pbc, initial_charges, initial_magmoms 

Initialize ...

Al-setup:
  name: Aluminium
  id: 2e6447feaea722efcff26bf034b25f30
  Z: 13
  valence: 3
  core: 10
  charge: 0.0
  file: /apps/Common/Core/GPAW-setups/0.9.20000/Al.LDA.gz
  compensation charges: gauss, rc=0.34, lmax=2
  cutoffs: 1.91(filt), 2.36(core),
  valence states:
                energy  radius
    3s(2.00)    -7.830   1.085
    3p(1.00)    -2.783   1.085
    *s          19.382   1.085
    *p          24.428   1.085
    *d           0.000   1.085

  Using partial waves for Al as LCAO basis

Reference energy: -85519.476996

Spin-paired calculation

Occupation numbers:
  Fermi-Dirac: width=0.1000 eV

Convergence criteria:
  Maximum total energy change: 0.0005 eV / electron
  Maximum integral of absolute density change: 0.0001 electrons
  Maximum integral of absolute eigenstate change: 4e-08 eV^2
  Maximum number of iterations: 333

Symmetries present (total): 48

  ( 1  0  0)  ( 1  0  0)  ( 1  0  0)  ( 1  0  0)  ( 1  0  0)  ( 1  0  0)
  ( 0  1  0)  ( 0  1  0)  ( 0  0  1)  ( 0  0  1)  ( 0  0 -1)  ( 0  0 -1)
  ( 0  0  1)  ( 0  0 -1)  ( 0  1  0)  ( 0 -1  0)  ( 0  1  0)  ( 0 -1  0)

  ( 1  0  0)  ( 1  0  0)  ( 0  1  0)  ( 0  1  0)  ( 0  1  0)  ( 0  1  0)
  ( 0 -1  0)  ( 0 -1  0)  ( 1  0  0)  ( 1  0  0)  ( 0  0  1)  ( 0  0  1)
  ( 0  0  1)  ( 0  0 -1)  ( 0  0  1)  ( 0  0 -1)  ( 1  0  0)  (-1  0  0)

  ( 0  1  0)  ( 0  1  0)  ( 0  1  0)  ( 0  1  0)  ( 0  0  1)  ( 0  0  1)
  ( 0  0 -1)  ( 0  0 -1)  (-1  0  0)  (-1  0  0)  ( 1  0  0)  ( 1  0  0)
  ( 1  0  0)  (-1  0  0)  ( 0  0  1)  ( 0  0 -1)  ( 0  1  0)  ( 0 -1  0)

  ( 0  0  1)  ( 0  0  1)  ( 0  0  1)  ( 0  0  1)  ( 0  0  1)  ( 0  0  1)
  ( 0  1  0)  ( 0  1  0)  ( 0 -1  0)  ( 0 -1  0)  (-1  0  0)  (-1  0  0)
  ( 1  0  0)  (-1  0  0)  ( 1  0  0)  (-1  0  0)  ( 0  1  0)  ( 0 -1  0)

  ( 0  0 -1)  ( 0  0 -1)  ( 0  0 -1)  ( 0  0 -1)  ( 0  0 -1)  ( 0  0 -1)
  ( 1  0  0)  ( 1  0  0)  ( 0  1  0)  ( 0  1  0)  ( 0 -1  0)  ( 0 -1  0)
  ( 0  1  0)  ( 0 -1  0)  ( 1  0  0)  (-1  0  0)  ( 1  0  0)  (-1  0  0)

  ( 0  0 -1)  ( 0  0 -1)  ( 0 -1  0)  ( 0 -1  0)  ( 0 -1  0)  ( 0 -1  0)
  (-1  0  0)  (-1  0  0)  ( 1  0  0)  ( 1  0  0)  ( 0  0  1)  ( 0  0  1)
  ( 0  1  0)  ( 0 -1  0)  ( 0  0  1)  ( 0  0 -1)  ( 1  0  0)  (-1  0  0)

  ( 0 -1  0)  ( 0 -1  0)  ( 0 -1  0)  ( 0 -1  0)  (-1  0  0)  (-1  0  0)
  ( 0  0 -1)  ( 0  0 -1)  (-1  0  0)  (-1  0  0)  ( 0  1  0)  ( 0  1  0)
  ( 1  0  0)  (-1  0  0)  ( 0  0  1)  ( 0  0 -1)  ( 0  0  1)  ( 0  0 -1)

  (-1  0  0)  (-1  0  0)  (-1  0  0)  (-1  0  0)  (-1  0  0)  (-1  0  0)
  ( 0  0  1)  ( 0  0  1)  ( 0  0 -1)  ( 0  0 -1)  ( 0 -1  0)  ( 0 -1  0)
  ( 0  1  0)  ( 0 -1  0)  ( 0  1  0)  ( 0 -1  0)  ( 0  0  1)  ( 0  0 -1)

512 k-points: 8 x 8 x 8 Monkhorst-Pack grid
20 k-points in the irreducible part of the Brillouin zone
       k-points in crystal coordinates                weights
   0:     0.06250000    0.06250000    0.06250000          8/512
   1:     0.18750000    0.06250000    0.06250000         24/512
   2:     0.18750000    0.18750000    0.06250000         24/512
   3:     0.18750000    0.18750000    0.18750000          8/512
   4:     0.31250000    0.06250000    0.06250000         24/512
   5:     0.31250000    0.18750000    0.06250000         48/512
   6:     0.31250000    0.18750000    0.18750000         24/512
   7:     0.31250000    0.31250000    0.06250000         24/512
   8:     0.31250000    0.31250000    0.18750000         24/512
   9:     0.31250000    0.31250000    0.31250000          8/512
          ...
  19:     0.43750000    0.43750000    0.43750000          8/512

Wave functions: Plane wave expansion
  Cutoff energy: 300.000 eV
  Number of coefficients (min, max): 47061, 47133
  Pulay-stress correction: 0.000000 eV/Ang^3 (de/decut=0.000000)
  Using FFTW library
  ScaLapack parameters: grid=1x1, blocksize=None
  Wavefunction extrapolation:
    Improved wavefunction reuse through dual PAW basis 

Eigensolver
   Davidson(niter=2, smin=None, normalize=True) 

Densities:
  Coarse grid: 64*64*64 grid
  Fine grid: 128*128*128 grid
  Total Charge: 0.000000 

Density mixing:
  Method: separate
  Backend: pulay
  Linear mixing parameter: 0.05
  Mixing with 5 old densities
  Damping of long wave oscillations: 50 

Hamiltonian:
  XC and Coulomb potentials evaluated on a 128*128*128 grid
  Using the LDA Exchange-Correlation functional
 

Memory estimate:
  Process memory now: 197.90 MiB
  Calculator: 242.61 MiB
    Density: 121.82 MiB
      Arrays: 52.00 MiB
      Localized functions: 49.82 MiB
      Mixer: 20.00 MiB
    Hamiltonian: 35.02 MiB
      Arrays: 34.00 MiB
      XC: 0.00 MiB
      Poisson: 0.00 MiB
      vbar: 1.02 MiB
    Wavefunctions: 85.77 MiB
      Arrays psit_nG: 40.27 MiB
      Eigensolver: 23.85 MiB
      Projections: 0.14 MiB
      Projectors: 10.06 MiB
      PW-descriptor: 11.44 MiB

Total number of cores used: 10
Parallelization over k-points: 10

Number of atoms: 13
Number of atomic orbitals: 52
Number of bands in calculation: 28
Bands to converge: occupied states only
Number of valence electrons: 39

... initialized

Initializing position-dependent things.

Density initialized from atomic densities
Creating initial wave functions:
  28 bands from LCAO basis set

           .--------------------------------------.  
          /|                                      |  
         / |                                      |  
        /  |                                      |  
       /   |                                      |  
      /    |                                      |  
     /     |                                      |  
    /      |                                      |  
   /       |                                      |  
  /        |                                      |  
 *         |                                      |  
 |         |               Al                     |  
 |         |         Al       Al                  |  
 |         |          AlAl     Al                 |  
 |         |                                      |  
 |         |             Al                       |  
 |         |        Al     AlAl                   |  
 |         |         Al       Al                  |  
 |         |            Al                        |  
 |         .--------------------------------------.  
 |        /                                      /   
 |       /                                      /    
 |      /                                      /     
 |     /                                      /      
 |    /                                      /       
 |   /                                      /        
 |  /                                      /         
 | /                                      /          
 |/                                      /           
 *--------------------------------------*            

Positions:
   0 Al     7.930480    6.000000    6.000000    ( 0.0000,  0.0000,  0.0000)
   1 Al     6.000000    7.930480    6.000000    ( 0.0000,  0.0000,  0.0000)
   2 Al     9.860960    7.930480    6.000000    ( 0.0000,  0.0000,  0.0000)
   3 Al     7.930480    9.860960    6.000000    ( 0.0000,  0.0000,  0.0000)
   4 Al     6.000000    6.000000    7.930480    ( 0.0000,  0.0000,  0.0000)
   5 Al     9.860960    6.000000    7.930480    ( 0.0000,  0.0000,  0.0000)
   6 Al     7.930480    6.000000    9.860960    ( 0.0000,  0.0000,  0.0000)
   7 Al     6.000000    9.860960    7.930480    ( 0.0000,  0.0000,  0.0000)
   8 Al     6.000000    7.930480    9.860960    ( 0.0000,  0.0000,  0.0000)
   9 Al     7.930480    7.930480    7.930480    ( 0.0000,  0.0000,  0.0000)
  10 Al     9.860960    9.860960    7.930480    ( 0.0000,  0.0000,  0.0000)
  11 Al     9.860960    7.930480    9.860960    ( 0.0000,  0.0000,  0.0000)
  12 Al     7.930480    9.860960    9.860960    ( 0.0000,  0.0000,  0.0000)

Unit cell:
           periodic     x           y           z      points  spacing
  1. axis:    yes   15.860960    0.000000    0.000000    64     0.2478
  2. axis:    yes    0.000000   15.860960    0.000000    64     0.2478
  3. axis:    yes    0.000000    0.000000   15.860960    64     0.2478

  Lengths:  15.860960  15.860960  15.860960
  Angles:   90.000000  90.000000  90.000000

Effective grid spacing dv^(1/3) = 0.2478

                     log10-error:    total        iterations:
           time      wfs    density  energy       fermi  poisson
iter:   1  04:34:48  +0.28   +inf   -42.472279    5             
iter:   2  04:34:57  -0.90  -0.76   -42.065755    5             
iter:   3  04:35:05  -1.14  -0.78   -40.258245    34            
iter:   4  04:35:14  -2.07  -1.14   -40.290179    6             
iter:   5  04:35:22  -1.19  -1.11   -41.904100    34            
iter:   6  04:35:31  -1.10  -0.94   -40.322051    36            
iter:   7  04:35:40  -2.35  -1.44   -40.262724    5             
iter:   8  04:35:48  -2.58  -1.48   -40.258883    4             
iter:   9  04:35:57  -2.88  -1.60   -40.209206    5             
iter:  10  04:36:05  -3.07  -1.83   -40.191932    3             
iter:  11  04:36:14  -2.83  -2.02   -40.194140    5             
iter:  12  04:36:22  -3.43  -2.07   -40.186188    4             
iter:  13  04:36:31  -3.77  -2.91   -40.186314    3             
iter:  14  04:36:39  -4.03  -3.14   -40.186353    3             
iter:  15  04:36:48  -4.22  -3.29   -40.186408    2             
iter:  16  04:36:56  -4.37  -3.19   -40.186636    3             
iter:  17  04:37:05  -4.59  -2.86   -40.186547    3             
iter:  18  04:37:13  -4.77  -2.95   -40.186510    2             
iter:  19  04:37:22  -4.87  -3.06   -40.186407    3             
iter:  20  04:37:30  -5.13  -3.58   -40.186412    3             
iter:  21  04:37:39  -5.33  -3.64   -40.186413    2             
iter:  22  04:37:48  -5.50  -3.62   -40.186415    2             
iter:  23  04:37:56  -5.67  -3.68   -40.186411    3             
iter:  24  04:38:05  -5.87  -3.90   -40.186411    2             
iter:  25  04:38:13  -6.05  -3.90   -40.186412    2             
iter:  26  04:38:22  -6.24  -4.01   -40.186411    2             
iter:  27  04:38:30  -6.44  -4.47   -40.186411    2             
iter:  28  04:38:39  -6.63  -4.74   -40.186411    2             
iter:  29  04:38:47  -6.82  -4.77   -40.186411    2             
iter:  30  04:38:56  -7.01  -4.76   -40.186412    2             
iter:  31  04:39:04  -7.19  -4.73   -40.186412    2             
iter:  32  04:39:13  -7.38  -4.80   -40.186412    2             
iter:  33  04:39:21  -7.57  -4.76   -40.186412    1             

Converged after 33 iterations.

Dipole moment: (-0.000000, 0.000000, -0.000000) |e|*Ang

Energy contributions relative to reference atoms: (reference = -85519.476996)

Kinetic:        +45.886894
Potential:      -34.401820
External:        +0.000000
XC:             -51.498389
Entropy (-ST):   -0.271891
Local:           -0.037151
--------------------------
Free energy:    -40.322357
Extrapolated:   -40.186412

Fermi level: -3.96703

Showing only first 2 kpts
 Kpt  Band  Eigenvalues  Occupancy
  0    17     -4.12804    0.02604
  0    18     -4.12804    0.02604
  0    19     -4.12804    0.02604
  0    20     -2.90440    0.00000

  1    17     -4.12812    0.07814
  1    18     -4.12804    0.07813
  1    19     -4.12804    0.07813
  1    20     -2.90447    0.00000


Gap: 1.223 eV
Transition (v -> c):
  (s=0, k=13, n=19, [0.44, 0.31, 0.06]) -> (s=0, k=16, n=20, [0.44, 0.44, 0.06])
