
  ___ ___ ___ _ _ _  
 |   |   |_  | | | | 
 | | | | | . | | | | 
 |__ |  _|___|_____|  19.8.1
 |___|_|             

User:   ericlin@hebbe02-1
Date:   Wed Mar  4 10:00:06 2020
Arch:   x86_64
Pid:    31505
Python: 3.7.2
gpaw:   /apps/Hebbe7/software/MPI/intel/2019.1.144-GCC-8.2.0-2.31.1/impi/2018.4.274/GPAW/19.8.1-Python-3.7.2/lib/python3.7/site-packages/gpaw
_gpaw:  /apps/Hebbe7/software/MPI/intel/2019.1.144-GCC-8.2.0-2.31.1/impi/2018.4.274/GPAW/19.8.1-Python-3.7.2/bin/
        gpaw-python
ase:    /apps/Hebbe7/software/MPI/intel/2019.1.144-GCC-8.2.0-2.31.1/impi/2018.4.274/ASE/3.18.0-Python-3.7.2/lib/python3.7/site-packages/ase (version 3.18.0)
numpy:  /apps/Hebbe7/software/MPI/intel/2019.1.144-GCC-8.2.0-2.31.1/impi/2018.4.274/SciPy-bundle/2019.03/lib/python3.7/site-packages/numpy (version 1.16.2)
scipy:  /apps/Hebbe7/software/MPI/intel/2019.1.144-GCC-8.2.0-2.31.1/impi/2018.4.274/SciPy-bundle/2019.03/lib/python3.7/site-packages/scipy (version 1.2.1)
libxc:  4.3.4
units:  Angstrom and eV
cores:  1

Input parameters:
  mode: {ecut: 300.0,
         gammacentered: False,
         name: pw}

System changes: positions, numbers, cell, pbc, initial_charges, initial_magmoms 

Initialize ...

Al-setup:
  name: Aluminium
  id: 2e6447feaea722efcff26bf034b25f30
  Z: 13
  valence: 3
  core: 10
  charge: 0.0
  file: /apps/Common/Core/GPAW-setups/0.9.20000/Al.LDA.gz
  compensation charges: gauss, rc=0.34, lmax=2
  cutoffs: 1.91(filt), 2.36(core),
  valence states:
                energy  radius
    3s(2.00)    -7.830   1.085
    3p(1.00)    -2.783   1.085
    *s          19.382   1.085
    *p          24.428   1.085
    *d           0.000   1.085

  Using partial waves for Al as LCAO basis

Reference energy: -592057.917662

Spin-paired calculation

Occupation numbers:
  Fermi-Dirac: width=0.1000 eV

Convergence criteria:
  Maximum total energy change: 0.0005 eV / electron
  Maximum integral of absolute density change: 0.0001 electrons
  Maximum integral of absolute eigenstate change: 4e-08 eV^2
  Maximum number of iterations: 333

Symmetries present (total): 1

  ( 1  0  0)
  ( 0  1  0)
  ( 0  0  1)

1 k-point (Gamma)
1 k-point in the irreducible part of the Brillouin zone
       k-points in crystal coordinates                weights
   0:     0.00000000    0.00000000    0.00000000          1/1

Wave functions: Plane wave expansion
  Cutoff energy: 300.000 eV
  Number of coefficients: 154711 (reduced to 77356)
  Pulay-stress correction: 0.000000 eV/Ang^3 (de/decut=0.000000)
  Using FFTW library
  ScaLapack parameters: grid=1x1, blocksize=None
  Wavefunction extrapolation:
    Improved wavefunction reuse through dual PAW basis 

Eigensolver
   Davidson(niter=2, smin=None, normalize=True) 

Densities:
  Coarse grid: 90*98*98 grid
  Fine grid: 180*196*196 grid
  Total Charge: 0.000000 

Density mixing:
  Method: separate
  Backend: pulay
  Linear mixing parameter: 0.05
  Mixing with 5 old densities
  Damping of long wave oscillations: 50 

Hamiltonian:
  XC and Coulomb potentials evaluated on a 180*196*196 grid
  Using the LDA Exchange-Correlation functional
 

Memory estimate:
  Process memory now: 5039.05 MiB
  Calculator: 943.93 MiB
    Density: 400.98 MiB
      Arrays: 171.46 MiB
      Localized functions: 163.58 MiB
      Mixer: 65.95 MiB
    Hamiltonian: 115.44 MiB
      Arrays: 112.11 MiB
      XC: 0.00 MiB
      Poisson: 0.00 MiB
      vbar: 3.34 MiB
    Wavefunctions: 427.50 MiB
      Arrays psit_nG: 195.94 MiB
      Eigensolver: 203.95 MiB
      Projections: 1.48 MiB
      Projectors: 8.26 MiB
      PW-descriptor: 17.87 MiB

Total number of cores used: 1

Number of atoms: 90
Number of atomic orbitals: 360
Number of bands in calculation: 166
Bands to converge: occupied states only
Number of valence electrons: 270

... initialized

Initializing position-dependent things.

Density initialized from atomic densities
Creating initial wave functions:
  166 bands from LCAO basis set

                .------------------------------------------------------.  
               /|                                                      |  
              / |                                                      |  
             /  |                                                      |  
            /   |                                                      |  
           /    |                                                      |  
          /     |                                                      |  
         /      |                                                      |  
        /       |                                                      |  
       /        |                                                      |  
      /         |                                                      |  
     /          |                                                      |  
    /           |                                                      |  
   /            |                   Al                                 |  
  /             |             Al     Al Al                             |  
 *              |       Al     Al Al     AlAl                          |  
 |              |        AlAl   Al AlAl   Al Al                        |  
 |              |                             Al                       |  
 |              |         Al AlAl   Al Al       Al                     |  
 |              |     Al      AlAl   Al AlAl   Al Al                   |  
 |              |      Al Al   Al AlAl   Al Al     Al                  |  
 |              |        AlAl Al     Al   Al AlAl                      |  
 |              |                  Al                                  |  
 |              |    Al     Al Al   AlAl Al   Al Al                    |  
 |              |     Al Al  Al Al Al   AlAl      Al                   |  
 |              |       AlAl     Al Al   Al AlAl                       |  
 |              |             Al   Al   Al   AlAl                      |  
 |              |          Al        Al                                |  
 |              |           Al Al      AlAl     Al                     |  
 |              |               Al Al   AlAl                           |  
 |              .-----------------AlAl-----Al--------------------------.  
 |             /                     Al                               /   
 |            /                                                      /    
 |           /                                                      /     
 |          /                                                      /      
 |         /                                                      /       
 |        /                                                      /        
 |       /                                                      /         
 |      /                                                      /          
 |     /                                                      /           
 |    /                                                      /            
 |   /                                                      /             
 |  /                                                      /              
 | /                                                      /               
 |/                                                      /                
 *------------------------------------------------------*                 

Positions:
   0 Al    12.250290   10.106760    6.007370    ( 0.0000,  0.0000,  0.0000)
   1 Al    10.277699   12.076320    6.003860    ( 0.0000,  0.0000,  0.0000)
   2 Al    14.220170   12.076320    6.000000    ( 0.0000,  0.0000,  0.0000)
   3 Al    12.250290   14.045878    6.007370    ( 0.0000,  0.0000,  0.0000)
   4 Al    12.252250    6.075620    9.990260    ( 0.0000,  0.0000,  0.0000)
   5 Al    12.248630    7.976620    7.877760    ( 0.0000,  0.0000,  0.0000)
   6 Al    10.103177    7.860540    9.806800    ( 0.0000,  0.0000,  0.0000)
   7 Al    14.400270    7.906390    9.813520    ( 0.0000,  0.0000,  0.0000)
   8 Al     8.125060   12.076320    7.862120    ( 0.0000,  0.0000,  0.0000)
   9 Al     8.003290    9.946440    9.796840    ( 0.0000,  0.0000,  0.0000)
  10 Al     6.186110   12.076320    9.953250    ( 0.0000,  0.0000,  0.0000)
  11 Al    10.083484    9.921600    7.793280    ( 0.0000,  0.0000,  0.0000)
  12 Al    12.251590   12.076320    7.957430    ( 0.0000,  0.0000,  0.0000)
  13 Al    12.237480    9.940220    9.814790    ( 0.0000,  0.0000,  0.0000)
  14 Al    10.087914   12.076320    9.801930    ( 0.0000,  0.0000,  0.0000)
  15 Al    14.409890    9.929720    7.811690    ( 0.0000,  0.0000,  0.0000)
  16 Al    14.327630   12.076320    9.890110    ( 0.0000,  0.0000,  0.0000)
  17 Al    16.250240   12.076320    7.944530    ( 0.0000,  0.0000,  0.0000)
  18 Al    16.354190   10.062270    9.946310    ( 0.0000,  0.0000,  0.0000)
  19 Al     8.003290   14.206204    9.796840    ( 0.0000,  0.0000,  0.0000)
  20 Al    10.083485   14.231045    7.793280    ( 0.0000,  0.0000,  0.0000)
  21 Al    12.248630   16.176020    7.877760    ( 0.0000,  0.0000,  0.0000)
  22 Al    12.237480   14.212421    9.814800    ( 0.0000,  0.0000,  0.0000)
  23 Al    10.103179   16.292090    9.806810    ( 0.0000,  0.0000,  0.0000)
  24 Al    14.409890   14.222917    7.811690    ( 0.0000,  0.0000,  0.0000)
  25 Al    14.400270   16.246250    9.813520    ( 0.0000,  0.0000,  0.0000)
  26 Al    12.252250   18.077010    9.990260    ( 0.0000,  0.0000,  0.0000)
  27 Al    16.354190   14.090369    9.946310    ( 0.0000,  0.0000,  0.0000)
  28 Al     8.219250    6.113770   14.007500    ( 0.0000,  0.0000,  0.0000)
  29 Al     8.042410    7.904880   11.852723    ( 0.0000,  0.0000,  0.0000)
  30 Al     6.209820    8.070670   13.990440    ( 0.0000,  0.0000,  0.0000)
  31 Al     8.051910    7.970290   16.140350    ( 0.0000,  0.0000,  0.0000)
  32 Al    10.230005    6.000000   11.998213    ( 0.0000,  0.0000,  0.0000)
  33 Al    12.206970    6.013820   13.967780    ( 0.0000,  0.0000,  0.0000)
  34 Al    14.219900    6.081240   11.958682    ( 0.0000,  0.0000,  0.0000)
  35 Al    12.259630    8.025410   11.936349    ( 0.0000,  0.0000,  0.0000)
  36 Al    10.187003    8.047410   13.991870    ( 0.0000,  0.0000,  0.0000)
  37 Al    14.394420    7.907880   14.078840    ( 0.0000,  0.0000,  0.0000)
  38 Al    10.189872    6.123820   15.971550    ( 0.0000,  0.0000,  0.0000)
  39 Al    12.337560    7.921540   16.136990    ( 0.0000,  0.0000,  0.0000)
  40 Al    16.229810    8.052600   11.950391    ( 0.0000,  0.0000,  0.0000)
  41 Al     6.102060   10.064040   11.965535    ( 0.0000,  0.0000,  0.0000)
  42 Al     8.113400   12.076320   11.905669    ( 0.0000,  0.0000,  0.0000)
  43 Al     8.130210   10.024480   13.964950    ( 0.0000,  0.0000,  0.0000)
  44 Al     6.000000   12.076320   13.985470    ( 0.0000,  0.0000,  0.0000)
  45 Al     6.127940   10.074320   16.000640    ( 0.0000,  0.0000,  0.0000)
  46 Al     8.191860   12.076320   15.987010    ( 0.0000,  0.0000,  0.0000)
  47 Al    10.117794    9.968470   11.822151    ( 0.0000,  0.0000,  0.0000)
  48 Al    12.211600   12.076320   11.872420    ( 0.0000,  0.0000,  0.0000)
  49 Al    12.332850    9.977170   14.046060    ( 0.0000,  0.0000,  0.0000)
  50 Al    10.244544   12.076320   13.927650    ( 0.0000,  0.0000,  0.0000)
  51 Al    14.313970   10.021340   11.921393    ( 0.0000,  0.0000,  0.0000)
  52 Al    14.312330   12.076320   13.986320    ( 0.0000,  0.0000,  0.0000)
  53 Al    10.217385   10.031060   16.051570    ( 0.0000,  0.0000,  0.0000)
  54 Al    12.291950   12.076320   16.053940    ( 0.0000,  0.0000,  0.0000)
  55 Al    14.402050    9.954680   16.131000    ( 0.0000,  0.0000,  0.0000)
  56 Al    16.452310   12.076320   11.951554    ( 0.0000,  0.0000,  0.0000)
  57 Al    16.318540   10.060080   13.955260    ( 0.0000,  0.0000,  0.0000)
  58 Al    16.232220   12.076320   15.956410    ( 0.0000,  0.0000,  0.0000)
  59 Al     6.102070   14.088595   11.965537    ( 0.0000,  0.0000,  0.0000)
  60 Al     8.042410   16.247760   11.852727    ( 0.0000,  0.0000,  0.0000)
  61 Al     8.130210   14.128156   13.964950    ( 0.0000,  0.0000,  0.0000)
  62 Al     6.209820   16.081970   13.990450    ( 0.0000,  0.0000,  0.0000)
  63 Al     8.219250   18.038870   14.007510    ( 0.0000,  0.0000,  0.0000)
  64 Al     6.127940   14.078318   16.000640    ( 0.0000,  0.0000,  0.0000)
  65 Al     8.051910   16.182340   16.140360    ( 0.0000,  0.0000,  0.0000)
  66 Al    10.117795   14.184166   11.822153    ( 0.0000,  0.0000,  0.0000)
  67 Al    12.259630   16.127220   11.936353    ( 0.0000,  0.0000,  0.0000)
  68 Al    12.332860   14.175463   14.046060    ( 0.0000,  0.0000,  0.0000)
  69 Al    10.187004   16.105230   13.991870    ( 0.0000,  0.0000,  0.0000)
  70 Al    14.313980   14.131293   11.921394    ( 0.0000,  0.0000,  0.0000)
  71 Al    14.394420   16.244750   14.078840    ( 0.0000,  0.0000,  0.0000)
  72 Al    10.230007   18.152640   11.998219    ( 0.0000,  0.0000,  0.0000)
  73 Al    12.206980   18.138810   13.967790    ( 0.0000,  0.0000,  0.0000)
  74 Al    14.219900   18.071390   11.958688    ( 0.0000,  0.0000,  0.0000)
  75 Al    10.217385   14.121576   16.051570    ( 0.0000,  0.0000,  0.0000)
  76 Al    12.337560   16.231090   16.136990    ( 0.0000,  0.0000,  0.0000)
  77 Al    14.402050   14.197954   16.131010    ( 0.0000,  0.0000,  0.0000)
  78 Al    10.189874   18.028820   15.971560    ( 0.0000,  0.0000,  0.0000)
  79 Al    16.229810   16.100030   11.950394    ( 0.0000,  0.0000,  0.0000)
  80 Al    16.318540   14.092548   13.955260    ( 0.0000,  0.0000,  0.0000)
  81 Al    10.205257    8.088170   17.978460    ( 0.0000,  0.0000,  0.0000)
  82 Al     8.183050   10.083490   18.056140    ( 0.0000,  0.0000,  0.0000)
  83 Al     6.267570   12.076320   17.905210    ( 0.0000,  0.0000,  0.0000)
  84 Al    12.240110   10.075900   18.066250    ( 0.0000,  0.0000,  0.0000)
  85 Al    10.208291   12.076320   18.176400    ( 0.0000,  0.0000,  0.0000)
  86 Al    14.259420   12.076310   17.969090    ( 0.0000,  0.0000,  0.0000)
  87 Al     8.183050   14.069137   18.056140    ( 0.0000,  0.0000,  0.0000)
  88 Al    12.240110   14.076726   18.066260    ( 0.0000,  0.0000,  0.0000)
  89 Al    10.205259   16.064460   17.978470    ( 0.0000,  0.0000,  0.0000)

Unit cell:
           periodic     x           y           z      points  spacing
  1. axis:    yes   22.452310    0.000000    0.000000    90     0.2495
  2. axis:    yes    0.000000   24.152640    0.000000    98     0.2465
  3. axis:    yes    0.000000    0.000000   24.176400    98     0.2467

  Lengths:  22.452310  24.152640  24.176400
  Angles:   90.000000  90.000000  90.000000

Effective grid spacing dv^(1/3) = 0.2475

                     log10-error:    total        iterations:
           time      wfs    density  energy       fermi  poisson
iter:   1  10:02:07  +0.13   +inf  -331.205772    3             
iter:   2  10:03:22  -1.02  -0.83  -329.706339    4             
iter:   3  10:04:38  -1.29  -0.86  -326.986053    33            
iter:   4  10:05:53  -1.45  -1.02  -327.716679    36            
iter:   5  10:07:07  -1.35  -0.96  -327.142059    37            
iter:   6  10:08:21  -1.37  -1.23  -333.387600    5             
iter:   7  10:09:36  -1.21  -0.99  -324.987829    35            
iter:   8  10:10:52  -2.39  -1.65  -324.990790    3             
iter:   9  10:12:09  -2.76  -1.77  -324.933863    3             
iter:  10  10:13:23  -2.84  -1.89  -324.860395    4             
iter:  11  10:14:38  -3.04  -2.09  -324.835135    3             
iter:  12  10:15:52  -3.25  -2.41  -324.835553    2             
iter:  13  10:17:06  -3.36  -2.48  -324.831965    3             
iter:  14  10:18:21  -3.47  -2.57  -324.830217    2             
iter:  15  10:19:35  -3.57  -2.69  -324.830059    3             
iter:  16  10:20:50  -3.67  -2.81  -324.829856    2             
iter:  17  10:22:04  -3.76  -2.96  -324.830450    2             
iter:  18  10:23:18  -3.85  -3.12  -324.831181    2             
iter:  19  10:24:32  -3.94  -3.36  -324.831278    2             
iter:  20  10:25:46  -4.02  -3.41  -324.831253    2             
iter:  21  10:27:01  -4.11  -3.50  -324.831447    2             
iter:  22  10:28:16  -4.19  -3.62  -324.831402    2             
iter:  23  10:29:30  -4.27  -3.74  -324.831411    2             
iter:  24  10:30:47  -4.35  -3.90  -324.831517    2             
iter:  25  10:32:04  -4.43  -4.01  -324.831498    2             
iter:  26  10:33:22  -4.51  -4.08  -324.831549    2             
iter:  27  10:34:35  -4.59  -4.11  -324.831594    2             
iter:  28  10:35:50  -4.67  -4.22  -324.831603    2             
iter:  29  10:37:04  -4.75  -4.31  -324.831623    2             
iter:  30  10:38:18  -4.82  -4.36  -324.831645    2             
iter:  31  10:39:33  -4.90  -4.57  -324.831661    2             
iter:  32  10:40:46  -4.97  -4.70  -324.831681    2             
iter:  33  10:41:59  -5.05  -4.83  -324.831699    2             
iter:  34  10:43:13  -5.12  -4.99  -324.831710    2             
iter:  35  10:44:25  -5.20  -5.04  -324.831719    2             
iter:  36  10:45:36  -5.27  -5.08  -324.831725    2             
iter:  37  10:46:50  -5.35  -5.09  -324.831731    1             
iter:  38  10:48:05  -5.42  -5.08  -324.831736    2             
iter:  39  10:49:21  -5.50  -5.12  -324.831740    2             
iter:  40  10:50:34  -5.57  -5.14  -324.831743    1             
iter:  41  10:51:48  -5.65  -5.12  -324.831746    2             
iter:  42  10:53:04  -5.72  -5.13  -324.831748    2             
iter:  43  10:54:18  -5.80  -5.14  -324.831751    2             
iter:  44  10:55:33  -5.87  -5.26  -324.831753    2             
iter:  45  10:56:47  -5.94  -5.37  -324.831755    1             
iter:  46  10:58:01  -6.02  -5.48  -324.831757    1             
iter:  47  10:59:16  -6.09  -5.52  -324.831758    1             
iter:  48  11:00:29  -6.16  -5.69  -324.831758    2             
iter:  49  11:01:47  -6.24  -5.88  -324.831759    1             
iter:  50  11:03:03  -6.31  -5.93  -324.831760    1             
iter:  51  11:04:21  -6.38  -5.96  -324.831760    1             
iter:  52  11:05:38  -6.47  -5.93  -324.831760    1             
iter:  53  11:06:52  -6.54  -5.91  -324.831761    1             
iter:  54  11:08:07  -6.62  -5.92  -324.831761    1             
iter:  55  11:09:21  -6.70  -5.90  -324.831761    1             
iter:  56  11:10:36  -6.76  -5.88  -324.831761    1             
iter:  57  11:11:49  -6.83  -5.88  -324.831762    1             
iter:  58  11:13:01  -6.90  -5.87  -324.831762    1             
iter:  59  11:14:14  -6.98  -5.85  -324.831762    1             
iter:  60  11:15:26  -7.05  -5.85  -324.831762    1             
iter:  61  11:16:40  -7.12  -5.85  -324.831762    1             
iter:  62  11:17:55  -7.19  -5.79  -324.831762    2             
iter:  63  11:19:09  -7.26  -5.86  -324.831762    1             
iter:  64  11:20:24  -7.33  -5.87  -324.831762    1             
iter:  65  11:21:39  -7.39  -5.86  -324.831762    1             
iter:  66  11:22:56  -7.46  -5.87  -324.831762    1             

Converged after 66 iterations.

Dipole moment: (-0.019042, -0.000002, -0.168816) |e|*Ang

Energy contributions relative to reference atoms: (reference = -592057.917662)

Kinetic:       +189.888386
Potential:     -104.501600
External:        +0.000000
XC:            -409.245315
Entropy (-ST):   -1.381206
Local:           -0.282630
--------------------------
Free energy:   -325.522365
Extrapolated:  -324.831762

Fermi level: -2.98203

 Band  Eigenvalues  Occupancy
    0    -12.97490    2.00000
    1    -12.50463    2.00000
    2    -12.44786    2.00000
    3    -12.25630    2.00000
    4    -11.83046    2.00000
    5    -11.80811    2.00000
    6    -11.66495    2.00000
    7    -11.56351    2.00000
    8    -11.37365    2.00000
    9    -11.08293    2.00000
   10    -10.98895    2.00000
   11    -10.87554    2.00000
   12    -10.72081    2.00000
   13    -10.71653    2.00000
   14    -10.68757    2.00000
   15    -10.53646    2.00000
   16    -10.50995    2.00000
   17    -10.04632    2.00000
   18    -10.01451    2.00000
   19    -10.00053    2.00000
   20     -9.74654    2.00000
   21     -9.73729    2.00000
   22     -9.60518    2.00000
   23     -9.57811    2.00000
   24     -9.53162    2.00000
   25     -9.42724    2.00000
   26     -9.42382    2.00000
   27     -9.36394    2.00000
   28     -9.33039    2.00000
   29     -8.96701    2.00000
   30     -8.93104    2.00000
   31     -8.92545    2.00000
   32     -8.75448    2.00000
   33     -8.67711    2.00000
   34     -8.51603    2.00000
   35     -8.43940    2.00000
   36     -8.36449    2.00000
   37     -8.28259    2.00000
   38     -8.21964    2.00000
   39     -8.19824    2.00000
   40     -8.14099    2.00000
   41     -8.13252    2.00000
   42     -8.01711    2.00000
   43     -7.97843    2.00000
   44     -7.90929    2.00000
   45     -7.75732    2.00000
   46     -7.68181    2.00000
   47     -7.67842    2.00000
   48     -7.60315    2.00000
   49     -7.48150    2.00000
   50     -7.34574    2.00000
   51     -7.27812    2.00000
   52     -7.19069    2.00000
   53     -7.11101    2.00000
   54     -7.08142    2.00000
   55     -6.99219    2.00000
   56     -6.93654    2.00000
   57     -6.89484    2.00000
   58     -6.82667    2.00000
   59     -6.80683    2.00000
   60     -6.78732    2.00000
   61     -6.72981    2.00000
   62     -6.65638    2.00000
   63     -6.64402    2.00000
   64     -6.58591    2.00000
   65     -6.39972    2.00000
   66     -6.30372    2.00000
   67     -6.22934    2.00000
   68     -6.20575    2.00000
   69     -6.12478    2.00000
   70     -6.02071    2.00000
   71     -5.94112    2.00000
   72     -5.90365    2.00000
   73     -5.86500    2.00000
   74     -5.75754    2.00000
   75     -5.74232    2.00000
   76     -5.72831    2.00000
   77     -5.65060    2.00000
   78     -5.65050    2.00000
   79     -5.46377    2.00000
   80     -5.43366    2.00000
   81     -5.37037    2.00000
   82     -5.30757    2.00000
   83     -5.29843    2.00000
   84     -5.25280    2.00000
   85     -5.24925    2.00000
   86     -5.20748    2.00000
   87     -5.17761    2.00000
   88     -5.12347    2.00000
   89     -5.08156    2.00000
   90     -5.06410    2.00000
   91     -4.97720    2.00000
   92     -4.96635    2.00000
   93     -4.86274    2.00000
   94     -4.82159    2.00000
   95     -4.80762    2.00000
   96     -4.77252    2.00000
   97     -4.74283    2.00000
   98     -4.65892    2.00000
   99     -4.58770    2.00000
  100     -4.46677    2.00000
  101     -4.44846    2.00000
  102     -4.34372    2.00000
  103     -4.33675    2.00000
  104     -4.28759    2.00000
  105     -4.24657    1.99999
  106     -4.19459    1.99999
  107     -4.11706    1.99998
  108     -4.01858    1.99994
  109     -4.01188    1.99993
  110     -4.01104    1.99993
  111     -3.92102    1.99983
  112     -3.89358    1.99978
  113     -3.84141    1.99963
  114     -3.76578    1.99921
  115     -3.73184    1.99889
  116     -3.70672    1.99858
  117     -3.68384    1.99821
  118     -3.66524    1.99785
  119     -3.65772    1.99768
  120     -3.58896    1.99538
  121     -3.55548    1.99356
  122     -3.50661    1.98952
  123     -3.47960    1.98629
  124     -3.45293    1.98213
  125     -3.40607    1.97161
  126     -3.37394    1.96106
  127     -3.35901    1.95492
  128     -3.31787    1.93276
  129     -3.26427    1.88775
  130     -3.24718    1.86821
  131     -3.23373    1.85065
  132     -3.12360    1.60933
  133     -3.01381    1.15758
  134     -2.96275    0.90391
  135     -2.93328    0.76095
  136     -2.91167    0.66203
  137     -2.88398    0.54556
  138     -2.79773    0.27339
  139     -2.77565    0.22533
  140     -2.74704    0.17414
  141     -2.67268    0.08675
  142     -2.67053    0.08498
  143     -2.62013    0.05222
  144     -2.59670    0.04154
  145     -2.55689    0.02809
  146     -2.46616    0.01143
  147     -2.44946    0.00968
  148     -2.35931    0.00394
  149     -2.35232    0.00368
  150     -2.18896    0.00072
  151     -2.15232    0.00050
  152     -2.14249    0.00045
  153     -2.05346    0.00019
  154     -1.98842    0.00010
  155     -1.91272    0.00005
  156     -1.90204    0.00004
  157     -1.89759    0.00004
  158     -1.88169    0.00003
  159     -1.87676    0.00003
  160     -1.86034    0.00003
  161     -1.83758    0.00002
  162     -1.74960    0.00001
  163     -1.73626    0.00001
  164     -1.69107    0.00000
  165     -1.68726    0.00000

Gap: 0.051 eV
Transition (v -> c):
  (s=0, k=0, n=133, [0.00, 0.00, 0.00]) -> (s=0, k=0, n=134, [0.00, 0.00, 0.00])
Writing to ./calculators/calc90.gpw (mode='')

Timing:                              incl.     excl.
-----------------------------------------------------------
Hamiltonian:                        24.903     0.802   0.0% |
 Atomic:                             1.306     0.009   0.0% |
  XC Correction:                     1.298     1.298   0.0% |
 Calculate atomic Hamiltonians:     21.343    21.343   0.4% |
 Communicate:                        0.000     0.000   0.0% |
 Initialize Hamiltonian:             0.000     0.000   0.0% |
 Poisson:                            0.171     0.171   0.0% |
 XC 3D grid:                         1.280     1.280   0.0% |
LCAO initialization:                13.083     0.021   0.0% |
 LCAO eigensolver:                   0.818     0.000   0.0% |
  Calculate projections:             0.008     0.008   0.0% |
  DenseAtomicCorrection:             0.015     0.015   0.0% |
  Distribute overlap matrix:         0.000     0.000   0.0% |
  Orbital Layouts:                   0.064     0.064   0.0% |
  Potential matrix:                  0.731     0.731   0.0% |
 LCAO to grid:                      10.264    10.264   0.2% |
 Set positions (LCAO WFS):           1.980     0.438   0.0% |
  Basic WFS set positions:           0.004     0.004   0.0% |
  Basis functions set positions:     0.001     0.001   0.0% |
  P tci:                             1.011     1.011   0.0% |
  ST tci:                            0.329     0.329   0.0% |
  mktci:                             0.199     0.199   0.0% |
PWDescriptor:                        0.048     0.048   0.0% |
SCF-cycle:                        4882.210     0.118   0.0% |
 Davidson:                        1800.299   848.599  17.1% |------|
  Apply H:                         161.494   156.879   3.2% ||
   HMM T:                            4.615     4.615   0.1% |
  Subspace diag:                   236.418     0.023   0.0% |
   calc_h_matrix:                  194.017    24.961   0.5% |
    Apply H:                       169.056   157.154   3.2% ||
     HMM T:                         11.902    11.902   0.2% |
   diagonalize:                      0.355     0.355   0.0% |
   rotate_psi:                      42.023    42.023   0.8% |
  calc. matrices:                  474.923   150.799   3.0% ||
   Apply H:                        324.124   313.745   6.3% |--|
    HMM T:                          10.379    10.379   0.2% |
  diagonalize:                       2.988     2.988   0.1% |
  rotate_psi:                       75.877    75.877   1.5% ||
 Density:                         1516.964     0.002   0.0% |
  Atomic density matrices:           0.644     0.644   0.0% |
  Mix:                            1437.507  1437.507  28.9% |-----------|
  Multipole moments:                 0.144     0.144   0.0% |
  Pseudo density:                   78.667    78.664   1.6% ||
   Symmetrize density:               0.003     0.003   0.0% |
 Hamiltonian:                     1560.134     1.724   0.0% |
  Atomic:                           85.508     0.576   0.0% |
   XC Correction:                   84.932    84.932   1.7% ||
  Calculate atomic Hamiltonians:  1384.675  1384.675  27.9% |----------|
  Communicate:                       0.001     0.001   0.0% |
  Poisson:                           3.522     3.522   0.1% |
  XC 3D grid:                       84.704    84.704   1.7% ||
 Orthonormalize:                     4.695     0.000   0.0% |
  calc_s_matrix:                     0.168     0.168   0.0% |
  inverse-cholesky:                  0.001     0.001   0.0% |
  projections:                       4.085     4.085   0.1% |
  rotate_psi_s:                      0.439     0.439   0.0% |
Set symmetry:                        0.001     0.001   0.0% |
Other:                              50.188    50.188   1.0% |
-----------------------------------------------------------
Total:                                      4970.432 100.0%

Memory usage: 6.28 GiB
Date: Wed Mar  4 11:22:57 2020
