
  ___ ___ ___ _ _ _  
 |   |   |_  | | | | 
 | | | | | . | | | | 
 |__ |  _|___|_____|  19.8.1
 |___|_|             

User:   ericlin@hebbe04-9
Date:   Tue Mar  3 10:23:23 2020
Arch:   x86_64
Pid:    22996
Python: 3.7.2
gpaw:   /apps/Hebbe7/software/MPI/intel/2019.1.144-GCC-8.2.0-2.31.1/impi/2018.4.274/GPAW/19.8.1-Python-3.7.2/lib/python3.7/site-packages/gpaw
_gpaw:  /apps/Hebbe7/software/MPI/intel/2019.1.144-GCC-8.2.0-2.31.1/impi/2018.4.274/GPAW/19.8.1-Python-3.7.2/bin/
        gpaw-python
ase:    /apps/Hebbe7/software/MPI/intel/2019.1.144-GCC-8.2.0-2.31.1/impi/2018.4.274/ASE/3.18.0-Python-3.7.2/lib/python3.7/site-packages/ase (version 3.18.0)
numpy:  /apps/Hebbe7/software/MPI/intel/2019.1.144-GCC-8.2.0-2.31.1/impi/2018.4.274/SciPy-bundle/2019.03/lib/python3.7/site-packages/numpy (version 1.16.2)
scipy:  /apps/Hebbe7/software/MPI/intel/2019.1.144-GCC-8.2.0-2.31.1/impi/2018.4.274/SciPy-bundle/2019.03/lib/python3.7/site-packages/scipy (version 1.2.1)
libxc:  4.3.4
units:  Angstrom and eV
cores:  1

Input parameters:
  mode: {ecut: 300.0,
         gammacentered: False,
         name: pw}

System changes: positions, numbers, cell, pbc, initial_charges, initial_magmoms 

Initialize ...

Al-setup:
  name: Aluminium
  id: 2e6447feaea722efcff26bf034b25f30
  Z: 13
  valence: 3
  core: 10
  charge: 0.0
  file: /apps/Common/Core/GPAW-setups/0.9.20000/Al.LDA.gz
  compensation charges: gauss, rc=0.34, lmax=2
  cutoffs: 1.91(filt), 2.36(core),
  valence states:
                energy  radius
    3s(2.00)    -7.830   1.085
    3p(1.00)    -2.783   1.085
    *s          19.382   1.085
    *p          24.428   1.085
    *d           0.000   1.085

  Using partial waves for Al as LCAO basis

Reference energy: -249980.009679

Spin-paired calculation

Occupation numbers:
  Fermi-Dirac: width=0.1000 eV

Convergence criteria:
  Maximum total energy change: 0.0005 eV / electron
  Maximum integral of absolute density change: 0.0001 electrons
  Maximum integral of absolute eigenstate change: 4e-08 eV^2
  Maximum number of iterations: 333

Symmetries present (total): 8

  ( 1  0  0)  ( 1  0  0)  ( 0  0  1)  ( 0  0  1)  ( 0  0 -1)  ( 0  0 -1)
  ( 0  1  0)  ( 0  1  0)  ( 0  1  0)  ( 0  1  0)  ( 0  1  0)  ( 0  1  0)
  ( 0  0  1)  ( 0  0 -1)  ( 1  0  0)  (-1  0  0)  ( 1  0  0)  (-1  0  0)

  (-1  0  0)  (-1  0  0)
  ( 0  1  0)  ( 0  1  0)
  ( 0  0  1)  ( 0  0 -1)

1 k-point (Gamma)
1 k-point in the irreducible part of the Brillouin zone
       k-points in crystal coordinates                weights
   0:     0.00000000    0.00000000    0.00000000          1/1

Wave functions: Plane wave expansion
  Cutoff energy: 300.000 eV
  Number of coefficients: 93165 (reduced to 46583)
  Pulay-stress correction: 0.000000 eV/Ang^3 (de/decut=0.000000)
  Using FFTW library
  ScaLapack parameters: grid=1x1, blocksize=None
  Wavefunction extrapolation:
    Improved wavefunction reuse through dual PAW basis 

Eigensolver
   Davidson(niter=2, smin=None, normalize=True) 

Densities:
  Coarse grid: 80*80*80 grid
  Fine grid: 160*160*160 grid
  Total Charge: 0.000000 

Density mixing:
  Method: separate
  Backend: pulay
  Linear mixing parameter: 0.05
  Mixing with 5 old densities
  Damping of long wave oscillations: 50 

Hamiltonian:
  XC and Coulomb potentials evaluated on a 160*160*160 grid
  Using the LDA Exchange-Correlation functional
 

Memory estimate:
  Process memory now: 1203.96 MiB
  Calculator: 431.34 MiB
    Density: 239.31 MiB
      Arrays: 101.56 MiB
      Localized functions: 98.68 MiB
      Mixer: 39.06 MiB
    Hamiltonian: 68.42 MiB
      Arrays: 66.41 MiB
      XC: 0.00 MiB
      Poisson: 0.00 MiB
      vbar: 2.01 MiB
    Wavefunctions: 123.61 MiB
      Arrays psit_nG: 51.89 MiB
      Eigensolver: 55.85 MiB
      Projections: 0.28 MiB
      Projectors: 4.98 MiB
      PW-descriptor: 10.62 MiB

Total number of cores used: 1

Number of atoms: 38
Number of atomic orbitals: 152
Number of bands in calculation: 73
Bands to converge: occupied states only
Number of valence electrons: 114

... initialized

Initializing position-dependent things.

Density initialized from atomic densities
Creating initial wave functions:
  73 bands from LCAO basis set

             .------------------------------------------------.  
            /|                                                |  
           / |                                                |  
          /  |                                                |  
         /   |                                                |  
        /    |                                                |  
       /     |                                                |  
      /      |                                                |  
     /       |                                                |  
    /        |                                                |  
   /         |                                                |  
  /          |                                                |  
 *           |                   Al                           |  
 |           |             Al     AlAl                        |  
 |           |              AlAl      Al                      |  
 |           |                                                |  
 |           |        Al     Al Al     AlAl                   |  
 |           |         AlAl      AlAl     Al                  |  
 |           |             AlAl   AlAl                        |  
 |           |       Al     AlAl      AlAl                    |  
 |           |        AlAl      AlAl     Al                   |  
 |           |                                                |  
 |           |           Al      AlAl                         |  
 |           |             AlAl     Al                        |  
 |           .----------------Al------------------------------.  
 |          /                                                /   
 |         /                                                /    
 |        /                                                /     
 |       /                                                /      
 |      /                                                /       
 |     /                                                /        
 |    /                                                /         
 |   /                                                /          
 |  /                                                /           
 | /                                                /            
 |/                                                /             
 *------------------------------------------------*              

Positions:
   0 Al     9.962690    6.000000    7.986490    ( 0.0000,  0.0000,  0.0000)
   1 Al     7.986490    9.962690    6.000000    ( 0.0000,  0.0000,  0.0000)
   2 Al     7.861430    7.861430    7.861430    ( 0.0000,  0.0000,  0.0000)
   3 Al     6.000000    9.962690    7.986490    ( 0.0000,  0.0000,  0.0000)
   4 Al     9.962690    7.986490    6.000000    ( 0.0000,  0.0000,  0.0000)
   5 Al    11.938890    9.962690    6.000000    ( 0.0000,  0.0000,  0.0000)
   6 Al    12.063950    7.861430    7.861430    ( 0.0000,  0.0000,  0.0000)
   7 Al     9.962690    9.962690    7.939610    ( 0.0000,  0.0000,  0.0000)
   8 Al    13.925380    9.962690    7.986490    ( 0.0000,  0.0000,  0.0000)
   9 Al     7.861430   12.063950    7.861430    ( 0.0000,  0.0000,  0.0000)
  10 Al     9.962690   11.938886    6.000000    ( 0.0000,  0.0000,  0.0000)
  11 Al    12.063950   12.063950    7.861430    ( 0.0000,  0.0000,  0.0000)
  12 Al     9.962690   13.925370    7.986490    ( 0.0000,  0.0000,  0.0000)
  13 Al     7.986490    6.000000    9.962690    ( 0.0000,  0.0000,  0.0000)
  14 Al    11.938890    6.000000    9.962690    ( 0.0000,  0.0000,  0.0000)
  15 Al     9.962690    6.000000   11.938890    ( 0.0000,  0.0000,  0.0000)
  16 Al     6.000000    7.986490    9.962690    ( 0.0000,  0.0000,  0.0000)
  17 Al     7.939610    9.962690    9.962690    ( 0.0000,  0.0000,  0.0000)
  18 Al     7.861430    7.861430   12.063950    ( 0.0000,  0.0000,  0.0000)
  19 Al     6.000000    9.962690   11.938890    ( 0.0000,  0.0000,  0.0000)
  20 Al     7.986490    9.962690   13.925380    ( 0.0000,  0.0000,  0.0000)
  21 Al     9.962690    7.939610    9.962690    ( 0.0000,  0.0000,  0.0000)
  22 Al    11.985770    9.962690    9.962690    ( 0.0000,  0.0000,  0.0000)
  23 Al    12.063950    7.861430   12.063950    ( 0.0000,  0.0000,  0.0000)
  24 Al     9.962690    9.962690   11.985770    ( 0.0000,  0.0000,  0.0000)
  25 Al    13.925380    7.986490    9.962690    ( 0.0000,  0.0000,  0.0000)
  26 Al    13.925380    9.962690   11.938890    ( 0.0000,  0.0000,  0.0000)
  27 Al     9.962690    7.986490   13.925380    ( 0.0000,  0.0000,  0.0000)
  28 Al    11.938890    9.962690   13.925380    ( 0.0000,  0.0000,  0.0000)
  29 Al     6.000000   11.938886    9.962690    ( 0.0000,  0.0000,  0.0000)
  30 Al     7.986490   13.925370    9.962690    ( 0.0000,  0.0000,  0.0000)
  31 Al     7.861430   12.063950   12.063950    ( 0.0000,  0.0000,  0.0000)
  32 Al     9.962690   11.985765    9.962690    ( 0.0000,  0.0000,  0.0000)
  33 Al    11.938890   13.925370    9.962690    ( 0.0000,  0.0000,  0.0000)
  34 Al    12.063950   12.063950   12.063950    ( 0.0000,  0.0000,  0.0000)
  35 Al     9.962690   13.925370   11.938890    ( 0.0000,  0.0000,  0.0000)
  36 Al    13.925380   11.938886    9.962690    ( 0.0000,  0.0000,  0.0000)
  37 Al     9.962690   11.938886   13.925380    ( 0.0000,  0.0000,  0.0000)

Unit cell:
           periodic     x           y           z      points  spacing
  1. axis:    yes   19.925380    0.000000    0.000000    80     0.2491
  2. axis:    yes    0.000000   19.925370    0.000000    80     0.2491
  3. axis:    yes    0.000000    0.000000   19.925380    80     0.2491

  Lengths:  19.925380  19.925370  19.925380
  Angles:   90.000000  90.000000  90.000000

Effective grid spacing dv^(1/3) = 0.2491

                     log10-error:    total        iterations:
           time      wfs    density  energy       fermi  poisson
iter:   1  10:23:43  +0.21   +inf  -133.370495    4             
iter:   2  10:23:55  -0.94  -0.78  -132.580332    33            
iter:   3  10:24:07  -1.34  -0.81  -130.562852    36            
iter:   4  10:24:18  -1.79  -0.97  -130.610603    5             
iter:   5  10:24:30  -1.45  -0.95  -130.116683    37            
iter:   6  10:24:42  -1.34  -1.30  -133.169014    35            
iter:   7  10:24:53  -1.47  -0.98  -129.538020    35            
iter:   8  10:25:05  -2.16  -1.53  -129.408601    3             
iter:   9  10:25:16  -2.80  -2.02  -129.437065    4             
iter:  10  10:25:28  -3.00  -2.08  -129.446645    3             
iter:  11  10:25:40  -3.08  -2.21  -129.428025    4             
iter:  12  10:25:52  -3.28  -2.64  -129.432159    3             
iter:  13  10:26:03  -3.41  -2.70  -129.431628    3             
iter:  14  10:26:15  -3.52  -2.74  -129.428355    3             
iter:  15  10:26:27  -3.62  -2.95  -129.430742    3             
iter:  16  10:26:39  -3.73  -3.10  -129.428659    3             
iter:  17  10:26:50  -3.83  -3.18  -129.429583    2             
iter:  18  10:27:02  -3.93  -3.28  -129.430348    3             
iter:  19  10:27:14  -4.03  -3.36  -129.429147    2             
iter:  20  10:27:26  -4.13  -3.75  -129.429266    2             
iter:  21  10:27:37  -4.23  -3.80  -129.429310    2             
iter:  22  10:27:49  -4.32  -3.83  -129.429336    2             
iter:  23  10:28:01  -4.42  -3.92  -129.429400    2             
iter:  24  10:28:13  -4.52  -4.13  -129.429351    2             
iter:  25  10:28:25  -4.62  -4.21  -129.429381    2             
iter:  26  10:28:37  -4.71  -4.27  -129.429456    2             
iter:  27  10:28:49  -4.81  -4.44  -129.429459    2             
iter:  28  10:29:01  -4.90  -4.57  -129.429469    2             
iter:  29  10:29:13  -5.00  -4.63  -129.429465    2             
iter:  30  10:29:24  -5.09  -4.70  -129.429468    2             
iter:  31  10:29:36  -5.19  -4.83  -129.429479    2             
iter:  32  10:29:49  -5.29  -4.99  -129.429481    2             
iter:  33  10:30:01  -5.39  -5.07  -129.429477    2             
iter:  34  10:30:12  -5.49  -5.11  -129.429476    2             
iter:  35  10:30:24  -5.58  -5.14  -129.429481    1             
iter:  36  10:30:36  -5.68  -5.24  -129.429486    1             
iter:  37  10:30:48  -5.78  -5.32  -129.429488    2             
iter:  38  10:30:59  -5.88  -5.40  -129.429489    1             
iter:  39  10:31:11  -5.98  -5.45  -129.429490    2             
iter:  40  10:31:22  -6.08  -5.51  -129.429490    1             
iter:  41  10:31:34  -6.18  -5.58  -129.429491    2             
iter:  42  10:31:46  -6.28  -5.93  -129.429492    1             
iter:  43  10:31:57  -6.38  -6.07  -129.429492    2             
iter:  44  10:32:09  -6.48  -6.00  -129.429492    1             
iter:  45  10:32:21  -6.58  -5.94  -129.429492    1             
iter:  46  10:32:32  -6.67  -5.83  -129.429492    1             
iter:  47  10:32:44  -6.77  -5.84  -129.429493    1             
iter:  48  10:32:55  -6.87  -5.83  -129.429493    1             
iter:  49  10:33:07  -6.97  -5.90  -129.429493    1             
iter:  50  10:33:19  -7.07  -5.90  -129.429493    2             
iter:  51  10:33:31  -7.16  -5.99  -129.429493    1             
iter:  52  10:33:43  -7.26  -6.23  -129.429493    1             
iter:  53  10:33:54  -7.36  -6.30  -129.429493    1             
iter:  54  10:34:06  -7.45  -6.42  -129.429493    1             

Converged after 54 iterations.

Dipole moment: (-0.000000, 0.000002, -0.000000) |e|*Ang

Energy contributions relative to reference atoms: (reference = -249980.009679)

Kinetic:       +103.406009
Potential:      -63.452725
External:        +0.000000
XC:            -168.718133
Entropy (-ST):   -1.093503
Local:           -0.117892
--------------------------
Free energy:   -129.976244
Extrapolated:  -129.429493

Fermi level: -3.20958

 Band  Eigenvalues  Occupancy
    0    -13.28605    2.00000
    1    -12.20299    2.00000
    2    -12.20299    2.00000
    3    -12.20299    2.00000
    4    -10.90908    2.00000
    5    -10.90908    2.00000
    6    -10.75245    2.00000
    7    -10.75245    2.00000
    8    -10.75244    2.00000
    9    -10.05222    2.00000
   10     -9.25956    2.00000
   11     -9.25956    2.00000
   12     -9.25956    2.00000
   13     -9.15704    2.00000
   14     -9.15704    2.00000
   15     -9.15703    2.00000
   16     -8.82297    2.00000
   17     -7.90646    2.00000
   18     -7.90646    2.00000
   19     -7.90646    2.00000
   20     -7.54791    2.00000
   21     -7.54791    2.00000
   22     -7.54791    2.00000
   23     -7.27444    2.00000
   24     -7.27444    2.00000
   25     -7.12073    2.00000
   26     -7.12073    2.00000
   27     -7.12073    2.00000
   28     -6.75429    2.00000
   29     -5.83212    2.00000
   30     -5.83211    2.00000
   31     -5.72816    2.00000
   32     -5.72816    2.00000
   33     -5.72816    2.00000
   34     -5.62342    2.00000
   35     -5.48526    2.00000
   36     -5.48526    2.00000
   37     -5.48526    2.00000
   38     -5.30090    2.00000
   39     -5.30090    2.00000
   40     -5.07675    2.00000
   41     -5.07675    2.00000
   42     -5.07675    2.00000
   43     -4.88361    2.00000
   44     -4.88361    2.00000
   45     -4.88361    2.00000
   46     -4.10684    1.99975
   47     -4.10684    1.99975
   48     -4.10683    1.99975
   49     -4.02369    1.99942
   50     -4.02369    1.99942
   51     -4.02369    1.99942
   52     -3.46090    1.85013
   53     -3.46090    1.85012
   54     -3.46090    1.85012
   55     -3.30535    1.44531
   56     -3.09810    0.49398
   57     -3.09810    0.49396
   58     -3.09810    0.49396
   59     -3.04640    0.32716
   60     -3.04640    0.32716
   61     -3.04639    0.32716
   62     -2.96525    0.15987
   63     -2.92924    0.11429
   64     -2.92924    0.11429
   65     -2.92924    0.11429
   66     -2.74615    0.01924
   67     -2.74615    0.01924
   68     -2.52932    0.00222
   69     -1.89100    0.00000
   70     -1.89100    0.00000
   71     -1.89100    0.00000
   72     -1.52740    0.00000

Gap: 0.207 eV
Transition (v -> c):
  (s=0, k=0, n=55, [0.00, 0.00, 0.00]) -> (s=0, k=0, n=56, [0.00, 0.00, 0.00])
Writing to ./calculators/calc38.gpw (mode='')

Timing:                              incl.     excl.
-----------------------------------------------------------
Hamiltonian:                         3.794     0.011   0.0% |
 Atomic:                             0.565     0.004   0.0% |
  XC Correction:                     0.561     0.561   0.1% |
 Calculate atomic Hamiltonians:      2.449     2.449   0.4% |
 Communicate:                        0.000     0.000   0.0% |
 Initialize Hamiltonian:             0.004     0.004   0.0% |
 Poisson:                            0.019     0.019   0.0% |
 XC 3D grid:                         0.745     0.745   0.1% |
LCAO initialization:                 2.490     0.020   0.0% |
 LCAO eigensolver:                   0.245     0.000   0.0% |
  Calculate projections:             0.001     0.001   0.0% |
  DenseAtomicCorrection:             0.002     0.002   0.0% |
  Distribute overlap matrix:         0.000     0.000   0.0% |
  Orbital Layouts:                   0.005     0.005   0.0% |
  Potential matrix:                  0.237     0.237   0.0% |
 LCAO to grid:                       1.605     1.605   0.2% |
 Set positions (LCAO WFS):           0.620     0.119   0.0% |
  Basic WFS set positions:           0.010     0.010   0.0% |
  Basis functions set positions:     0.000     0.000   0.0% |
  P tci:                             0.360     0.360   0.1% |
  ST tci:                            0.096     0.096   0.0% |
  mktci:                             0.035     0.035   0.0% |
PWDescriptor:                        0.023     0.023   0.0% |
SCF-cycle:                         628.962     0.052   0.0% |
 Davidson:                         256.193    98.442  15.3% |-----|
  Apply H:                          31.005    30.076   4.7% |-|
   HMM T:                            0.930     0.930   0.1% |
  Subspace diag:                    38.527     0.011   0.0% |
   calc_h_matrix:                   33.540     2.362   0.4% |
    Apply H:                        31.178    30.088   4.7% |-|
     HMM T:                          1.090     1.090   0.2% |
   diagonalize:                      0.122     0.122   0.0% |
   rotate_psi:                       4.854     4.854   0.8% |
  calc. matrices:                   78.358    16.310   2.5% ||
   Apply H:                         62.049    60.141   9.3% |---|
    HMM T:                           1.907     1.907   0.3% |
  diagonalize:                       0.397     0.397   0.1% |
  rotate_psi:                        9.463     9.463   1.5% ||
 Density:                          173.156     0.002   0.0% |
  Atomic density matrices:           0.335     0.335   0.1% |
  Mix:                             140.492   140.492  21.8% |--------|
  Multipole moments:                 0.051     0.051   0.0% |
  Pseudo density:                   32.276    15.096   2.3% ||
   Symmetrize density:              17.180    17.180   2.7% ||
 Hamiltonian:                      198.902     0.488   0.1% |
  Atomic:                           30.004     0.205   0.0% |
   XC Correction:                   29.799    29.799   4.6% |-|
  Calculate atomic Hamiltonians:   130.007   130.007  20.2% |-------|
  Communicate:                       0.001     0.001   0.0% |
  Poisson:                           1.065     1.065   0.2% |
  XC 3D grid:                       37.337    37.337   5.8% |-|
 Orthonormalize:                     0.659     0.000   0.0% |
  calc_s_matrix:                     0.027     0.027   0.0% |
  inverse-cholesky:                  0.001     0.001   0.0% |
  projections:                       0.553     0.553   0.1% |
  rotate_psi_s:                      0.078     0.078   0.0% |
Set symmetry:                        0.005     0.005   0.0% |
Other:                               8.777     8.777   1.4% ||
-----------------------------------------------------------
Total:                                       644.051 100.0%

Memory usage: 2.12 GiB
Date: Tue Mar  3 10:34:07 2020
