
  ___ ___ ___ _ _ _  
 |   |   |_  | | | | 
 | | | | | . | | | | 
 |__ |  _|___|_____|  19.8.1
 |___|_|             

User:   ericlin@hebbe02-1
Date:   Wed Mar  4 09:07:57 2020
Arch:   x86_64
Pid:    31505
Python: 3.7.2
gpaw:   /apps/Hebbe7/software/MPI/intel/2019.1.144-GCC-8.2.0-2.31.1/impi/2018.4.274/GPAW/19.8.1-Python-3.7.2/lib/python3.7/site-packages/gpaw
_gpaw:  /apps/Hebbe7/software/MPI/intel/2019.1.144-GCC-8.2.0-2.31.1/impi/2018.4.274/GPAW/19.8.1-Python-3.7.2/bin/
        gpaw-python
ase:    /apps/Hebbe7/software/MPI/intel/2019.1.144-GCC-8.2.0-2.31.1/impi/2018.4.274/ASE/3.18.0-Python-3.7.2/lib/python3.7/site-packages/ase (version 3.18.0)
numpy:  /apps/Hebbe7/software/MPI/intel/2019.1.144-GCC-8.2.0-2.31.1/impi/2018.4.274/SciPy-bundle/2019.03/lib/python3.7/site-packages/numpy (version 1.16.2)
scipy:  /apps/Hebbe7/software/MPI/intel/2019.1.144-GCC-8.2.0-2.31.1/impi/2018.4.274/SciPy-bundle/2019.03/lib/python3.7/site-packages/scipy (version 1.2.1)
libxc:  4.3.4
units:  Angstrom and eV
cores:  1

Input parameters:
  mode: {ecut: 300.0,
         gammacentered: False,
         name: pw}

System changes: positions, numbers, cell, pbc, initial_charges, initial_magmoms 

Initialize ...

Al-setup:
  name: Aluminium
  id: 2e6447feaea722efcff26bf034b25f30
  Z: 13
  valence: 3
  core: 10
  charge: 0.0
  file: /apps/Common/Core/GPAW-setups/0.9.20000/Al.LDA.gz
  compensation charges: gauss, rc=0.34, lmax=2
  cutoffs: 1.91(filt), 2.36(core),
  valence states:
                energy  radius
    3s(2.00)    -7.830   1.085
    3p(1.00)    -2.783   1.085
    *s          19.382   1.085
    *p          24.428   1.085
    *d           0.000   1.085

  Using partial waves for Al as LCAO basis

Reference energy: -467067.912822

Spin-paired calculation

Occupation numbers:
  Fermi-Dirac: width=0.1000 eV

Convergence criteria:
  Maximum total energy change: 0.0005 eV / electron
  Maximum integral of absolute density change: 0.0001 electrons
  Maximum integral of absolute eigenstate change: 4e-08 eV^2
  Maximum number of iterations: 333

Symmetries present (total): 4

  ( 1  0  0)  ( 1  0  0)  (-1  0  0)  (-1  0  0)
  ( 0  1  0)  ( 0 -1  0)  ( 0  1  0)  ( 0 -1  0)
  ( 0  0  1)  ( 0  0  1)  ( 0  0  1)  ( 0  0  1)

1 k-point (Gamma)
1 k-point in the irreducible part of the Brillouin zone
       k-points in crystal coordinates                weights
   0:     0.00000000    0.00000000    0.00000000          1/1

Wave functions: Plane wave expansion
  Cutoff energy: 300.000 eV
  Number of coefficients: 138073 (reduced to 69037)
  Pulay-stress correction: 0.000000 eV/Ang^3 (de/decut=0.000000)
  Using FFTW library
  ScaLapack parameters: grid=1x1, blocksize=None
  Wavefunction extrapolation:
    Improved wavefunction reuse through dual PAW basis 

Eigensolver
   Davidson(niter=2, smin=None, normalize=True) 

Densities:
  Coarse grid: 96*84*96 grid
  Fine grid: 192*168*192 grid
  Total Charge: 0.000000 

Density mixing:
  Method: separate
  Backend: pulay
  Linear mixing parameter: 0.05
  Mixing with 5 old densities
  Damping of long wave oscillations: 50 

Hamiltonian:
  XC and Coulomb potentials evaluated on a 192*168*192 grid
  Using the LDA Exchange-Correlation functional
 

Memory estimate:
  Process memory now: 3260.96 MiB
  Calculator: 771.03 MiB
    Density: 358.64 MiB
      Arrays: 153.56 MiB
      Localized functions: 146.01 MiB
      Mixer: 59.06 MiB
    Hamiltonian: 103.39 MiB
      Arrays: 100.41 MiB
      XC: 0.00 MiB
      Poisson: 0.00 MiB
      vbar: 2.98 MiB
    Wavefunctions: 309.01 MiB
      Arrays psit_nG: 139.05 MiB
      Eigensolver: 145.65 MiB
      Projections: 0.93 MiB
      Projectors: 7.37 MiB
      PW-descriptor: 16.00 MiB

Total number of cores used: 1

Number of atoms: 71
Number of atomic orbitals: 284
Number of bands in calculation: 132
Bands to converge: occupied states only
Number of valence electrons: 213

... initialized

Initializing position-dependent things.

Density initialized from atomic densities
Creating initial wave functions:
  132 bands from LCAO basis set

              .----------------------------------------------------------.  
             /|                                                          |  
            / |                                                          |  
           /  |                                                          |  
          /   |                                                          |  
         /    |                                                          |  
        /     |                                                          |  
       /      |                                                          |  
      /       |                                                          |  
     /        |                                                          |  
    /         |                                                          |  
   /          |                                                          |  
  /           |                                                          |  
 *            |                       Al                                 |  
 |            |                 Al      AlAl                             |  
 |            |                  Al Al      Al                           |  
 |            |            Al      AlAl      AlAl                        |  
 |            |             AlAl      Al Al      Al                      |  
 |            |               AlAl      AlAl     Al                      |  
 |            |       Al          Al                Al                   |  
 |            |         AAl      Al Al     Al Al     Al                  |  
 |            |            AlAl    AlAlAl    AlAl                        |  
 |            |      Al     Al Al     Al Al      AAl                     |  
 |            |       Al                Al          Al                   |  
 |            |          Al     AlAl      AlAl                           |  
 |            |          Al      Al Al      AlAl                         |  
 |            |            AlAl      AlAl      Al                        |  
 |            |               Al      Al Al                              |  
 |            |                 AlAl      Al                             |  
 |            .---------------------Al-----------------------------------.  
 |           /                                                          /   
 |          /                                                          /    
 |         /                                                          /     
 |        /                                                          /      
 |       /                                                          /       
 |      /                                                          /        
 |     /                                                          /         
 |    /                                                          /          
 |   /                                                          /           
 |  /                                                          /            
 | /                                                          /             
 |/                                                          /              
 *----------------------------------------------------------*               

Positions:
   0 Al    11.962910    8.249320    6.000000    ( 0.0000,  0.0000,  0.0000)
   1 Al    10.001240   10.223390    6.006599    ( 0.0000,  0.0000,  0.0000)
   2 Al    13.924580   10.223390    6.006599    ( 0.0000,  0.0000,  0.0000)
   3 Al    11.962910   12.197460    6.000000    ( 0.0000,  0.0000,  0.0000)
   4 Al     9.827690    8.062090    7.818150    ( 0.0000,  0.0000,  0.0000)
   5 Al     9.958810    6.112000    9.958770    ( 0.0000,  0.0000,  0.0000)
   6 Al     7.818200    8.062090    9.827650    ( 0.0000,  0.0000,  0.0000)
   7 Al    11.962910    6.221010    7.953250    ( 0.0000,  0.0000,  0.0000)
   8 Al    14.098130    8.062090    7.818150    ( 0.0000,  0.0000,  0.0000)
   9 Al    13.967010    6.112000    9.958770    ( 0.0000,  0.0000,  0.0000)
  10 Al    11.962910    8.143110    9.912700    ( 0.0000,  0.0000,  0.0000)
  11 Al    16.107620    8.062090    9.827650    ( 0.0000,  0.0000,  0.0000)
  12 Al     6.006670   10.223390   10.001200    ( 0.0000,  0.0000,  0.0000)
  13 Al     7.890410   10.223390    7.890370    ( 0.0000,  0.0000,  0.0000)
  14 Al     9.827690   12.384690    7.818150    ( 0.0000,  0.0000,  0.0000)
  15 Al     9.844850   10.223390    9.844800    ( 0.0000,  0.0000,  0.0000)
  16 Al     7.818200   12.384690    9.827650    ( 0.0000,  0.0000,  0.0000)
  17 Al     9.958810   14.334780    9.958770    ( 0.0000,  0.0000,  0.0000)
  18 Al    11.962910   10.223390    7.961630    ( 0.0000,  0.0000,  0.0000)
  19 Al    14.098130   12.384690    7.818150    ( 0.0000,  0.0000,  0.0000)
  20 Al    16.035410   10.223390    7.890370    ( 0.0000,  0.0000,  0.0000)
  21 Al    11.962910   14.225770    7.953250    ( 0.0000,  0.0000,  0.0000)
  22 Al    14.080970   10.223390    9.844800    ( 0.0000,  0.0000,  0.0000)
  23 Al    11.962910   12.303670    9.912700    ( 0.0000,  0.0000,  0.0000)
  24 Al    16.107620   12.384690    9.827650    ( 0.0000,  0.0000,  0.0000)
  25 Al    13.967010   14.334780    9.958770    ( 0.0000,  0.0000,  0.0000)
  26 Al    17.919150   10.223390   10.001200    ( 0.0000,  0.0000,  0.0000)
  27 Al     6.000000    8.249320   11.962860    ( 0.0000,  0.0000,  0.0000)
  28 Al     7.953300    6.221010   11.962860    ( 0.0000,  0.0000,  0.0000)
  29 Al     9.912750    8.143110   11.962860    ( 0.0000,  0.0000,  0.0000)
  30 Al     9.958810    6.112000   13.966960    ( 0.0000,  0.0000,  0.0000)
  31 Al     7.818200    8.062090   14.098080    ( 0.0000,  0.0000,  0.0000)
  32 Al    11.962910    6.000000   11.962860    ( 0.0000,  0.0000,  0.0000)
  33 Al    14.013070    8.143110   11.962860    ( 0.0000,  0.0000,  0.0000)
  34 Al    13.967010    6.112000   13.966960    ( 0.0000,  0.0000,  0.0000)
  35 Al    11.962910    8.143110   14.013020    ( 0.0000,  0.0000,  0.0000)
  36 Al    15.972520    6.221010   11.962860    ( 0.0000,  0.0000,  0.0000)
  37 Al    16.107620    8.062090   14.098080    ( 0.0000,  0.0000,  0.0000)
  38 Al    17.925820    8.249320   11.962860    ( 0.0000,  0.0000,  0.0000)
  39 Al     6.000000   12.197460   11.962860    ( 0.0000,  0.0000,  0.0000)
  40 Al     6.006670   10.223390   13.924530    ( 0.0000,  0.0000,  0.0000)
  41 Al     7.961670   10.223390   11.962860    ( 0.0000,  0.0000,  0.0000)
  42 Al     9.912750   12.303670   11.962860    ( 0.0000,  0.0000,  0.0000)
  43 Al     9.844850   10.223390   14.080930    ( 0.0000,  0.0000,  0.0000)
  44 Al     7.818200   12.384690   14.098080    ( 0.0000,  0.0000,  0.0000)
  45 Al     7.953300   14.225770   11.962860    ( 0.0000,  0.0000,  0.0000)
  46 Al     9.958810   14.334780   13.966960    ( 0.0000,  0.0000,  0.0000)
  47 Al    11.962910   10.223390   11.962860    ( 0.0000,  0.0000,  0.0000)
  48 Al    14.013070   12.303670   11.962860    ( 0.0000,  0.0000,  0.0000)
  49 Al    14.080970   10.223390   14.080930    ( 0.0000,  0.0000,  0.0000)
  50 Al    11.962910   12.303670   14.013020    ( 0.0000,  0.0000,  0.0000)
  51 Al    15.964150   10.223390   11.962860    ( 0.0000,  0.0000,  0.0000)
  52 Al    16.107620   12.384690   14.098080    ( 0.0000,  0.0000,  0.0000)
  53 Al    11.962910   14.446780   11.962860    ( 0.0000,  0.0000,  0.0000)
  54 Al    13.967010   14.334780   13.966960    ( 0.0000,  0.0000,  0.0000)
  55 Al    15.972520   14.225770   11.962860    ( 0.0000,  0.0000,  0.0000)
  56 Al    17.925820   12.197460   11.962860    ( 0.0000,  0.0000,  0.0000)
  57 Al    17.919150   10.223390   13.924530    ( 0.0000,  0.0000,  0.0000)
  58 Al     9.827690    8.062090   16.107574    ( 0.0000,  0.0000,  0.0000)
  59 Al    11.962910    6.221010   15.972474    ( 0.0000,  0.0000,  0.0000)
  60 Al    14.098130    8.062090   16.107574    ( 0.0000,  0.0000,  0.0000)
  61 Al    11.962910    8.249320   17.925770    ( 0.0000,  0.0000,  0.0000)
  62 Al     7.890410   10.223390   16.035360    ( 0.0000,  0.0000,  0.0000)
  63 Al     9.827690   12.384690   16.107574    ( 0.0000,  0.0000,  0.0000)
  64 Al    10.001240   10.223390   17.919100    ( 0.0000,  0.0000,  0.0000)
  65 Al    11.962910   10.223390   15.964101    ( 0.0000,  0.0000,  0.0000)
  66 Al    14.098130   12.384690   16.107574    ( 0.0000,  0.0000,  0.0000)
  67 Al    13.924580   10.223390   17.919100    ( 0.0000,  0.0000,  0.0000)
  68 Al    11.962910   12.197460   17.925770    ( 0.0000,  0.0000,  0.0000)
  69 Al    16.035410   10.223390   16.035360    ( 0.0000,  0.0000,  0.0000)
  70 Al    11.962910   14.225770   15.972474    ( 0.0000,  0.0000,  0.0000)

Unit cell:
           periodic     x           y           z      points  spacing
  1. axis:    yes   23.925820    0.000000    0.000000    96     0.2492
  2. axis:    yes    0.000000   20.446780    0.000000    84     0.2434
  3. axis:    yes    0.000000    0.000000   23.925770    96     0.2492

  Lengths:  23.925820  20.446780  23.925770
  Angles:   90.000000  90.000000  90.000000

Effective grid spacing dv^(1/3) = 0.2473

                     log10-error:    total        iterations:
           time      wfs    density  energy       fermi  poisson
iter:   1  09:09:10  +0.15   +inf  -258.206064    4             
iter:   2  09:09:59  -0.99  -0.82  -256.769326    5             
iter:   3  09:10:48  -1.34  -0.85  -254.263152    36            
iter:   4  09:11:39  -1.46  -0.98  -255.825121    36            
iter:   5  09:12:29  -1.25  -0.93  -255.006011    37            
iter:   6  09:13:18  -1.31  -1.21  -260.779709    34            
iter:   7  09:14:06  -1.22  -0.95  -252.738866    37            
iter:   8  09:14:55  -2.39  -1.58  -252.884634    4             
iter:   9  09:15:46  -2.61  -1.65  -252.770800    4             
iter:  10  09:16:36  -2.82  -1.88  -252.724459    4             
iter:  11  09:17:26  -3.00  -2.04  -252.708597    3             
iter:  12  09:18:14  -3.15  -2.16  -252.714114    4             
iter:  13  09:19:02  -3.30  -2.22  -252.693276    3             
iter:  14  09:19:51  -3.44  -2.48  -252.690487    3             
iter:  15  09:20:40  -3.58  -2.66  -252.693427    3             
iter:  16  09:21:30  -3.69  -2.72  -252.693590    3             
iter:  17  09:22:20  -3.77  -2.77  -252.692697    3             
iter:  18  09:23:11  -3.86  -2.86  -252.695150    3             
iter:  19  09:23:58  -3.95  -2.87  -252.693815    3             
iter:  20  09:24:45  -3.99  -2.96  -252.691769    3             
iter:  21  09:25:36  -4.10  -3.04  -252.693664    3             
iter:  22  09:26:26  -4.21  -3.37  -252.693713    2             
iter:  23  09:27:17  -4.30  -3.43  -252.693629    2             
iter:  24  09:28:05  -4.38  -3.57  -252.694045    2             
iter:  25  09:28:53  -4.46  -3.62  -252.693873    3             
iter:  26  09:29:41  -4.54  -3.89  -252.694010    2             
iter:  27  09:30:29  -4.62  -3.97  -252.694107    2             
iter:  28  09:31:17  -4.70  -4.08  -252.694033    2             
iter:  29  09:32:08  -4.78  -4.15  -252.694101    2             
iter:  30  09:32:59  -4.86  -4.35  -252.694098    2             
iter:  31  09:33:49  -4.94  -4.44  -252.694072    2             
iter:  32  09:34:36  -5.02  -4.75  -252.694114    2             
iter:  33  09:35:25  -5.10  -4.80  -252.694120    1             
iter:  34  09:36:16  -5.18  -4.78  -252.694129    2             
iter:  35  09:37:07  -5.26  -4.81  -252.694132    2             
iter:  36  09:37:56  -5.34  -4.85  -252.694137    1             
iter:  37  09:38:44  -5.42  -4.83  -252.694142    2             
iter:  38  09:39:32  -5.50  -4.82  -252.694141    2             
iter:  39  09:40:20  -5.57  -4.84  -252.694145    2             
iter:  40  09:41:08  -5.65  -4.83  -252.694149    2             
iter:  41  09:41:57  -5.73  -4.82  -252.694148    2             
iter:  42  09:42:48  -5.81  -4.80  -252.694151    1             
iter:  43  09:43:39  -5.89  -4.78  -252.694152    2             
iter:  44  09:44:29  -5.97  -4.81  -252.694157    2             
iter:  45  09:45:17  -6.04  -4.82  -252.694155    2             
iter:  46  09:46:07  -6.12  -4.78  -252.694162    2             
iter:  47  09:46:58  -6.20  -4.79  -252.694162    2             
iter:  48  09:47:49  -6.27  -4.80  -252.694152    2             
iter:  49  09:48:38  -6.35  -5.06  -252.694159    1             
iter:  50  09:49:27  -6.43  -5.20  -252.694158    2             
iter:  51  09:50:15  -6.51  -5.35  -252.694160    2             
iter:  52  09:51:03  -6.59  -5.44  -252.694159    2             
iter:  53  09:51:52  -6.66  -5.48  -252.694157    2             
iter:  54  09:52:42  -6.74  -5.58  -252.694160    2             
iter:  55  09:53:32  -6.82  -5.82  -252.694161    2             
iter:  56  09:54:22  -6.89  -5.92  -252.694161    1             
iter:  57  09:55:11  -6.97  -5.98  -252.694160    1             
iter:  58  09:55:59  -7.05  -6.15  -252.694160    2             
iter:  59  09:56:49  -7.13  -6.31  -252.694160    1             
iter:  60  09:57:40  -7.21  -6.33  -252.694161    1             
iter:  61  09:58:30  -7.29  -6.35  -252.694161    1             
iter:  62  09:59:18  -7.37  -6.33  -252.694161    1             
iter:  63  10:00:06  -7.45  -6.30  -252.694161    1             

Converged after 63 iterations.

Dipole moment: (0.000000, 0.000000, -0.000003) |e|*Ang

Energy contributions relative to reference atoms: (reference = -467067.912822)

Kinetic:       +150.001081
Potential:      -83.333233
External:        +0.000000
XC:            -318.534542
Entropy (-ST):   -1.216947
Local:           -0.218993
--------------------------
Free energy:   -253.302634
Extrapolated:  -252.694161

Fermi level: -3.18162

 Band  Eigenvalues  Occupancy
    0    -13.05089    2.00000
    1    -12.50930    2.00000
    2    -12.50930    2.00000
    3    -12.16251    2.00000
    4    -11.93247    2.00000
    5    -11.48883    2.00000
    6    -11.46167    2.00000
    7    -11.41291    2.00000
    8    -11.41291    2.00000
    9    -10.79393    2.00000
   10    -10.79393    2.00000
   11    -10.68121    2.00000
   12    -10.60846    2.00000
   13    -10.39685    2.00000
   14    -10.39684    2.00000
   15    -10.11649    2.00000
   16    -10.04486    2.00000
   17     -9.64088    2.00000
   18     -9.61253    2.00000
   19     -9.54141    2.00000
   20     -9.54140    2.00000
   21     -9.49209    2.00000
   22     -9.33343    2.00000
   23     -9.33342    2.00000
   24     -8.96759    2.00000
   25     -8.88743    2.00000
   26     -8.73796    2.00000
   27     -8.73796    2.00000
   28     -8.66004    2.00000
   29     -8.53305    2.00000
   30     -8.34300    2.00000
   31     -8.34299    2.00000
   32     -8.03497    2.00000
   33     -7.97388    2.00000
   34     -7.95255    2.00000
   35     -7.93505    2.00000
   36     -7.93504    2.00000
   37     -7.83787    2.00000
   38     -7.78950    2.00000
   39     -7.53175    2.00000
   40     -7.53175    2.00000
   41     -7.31318    2.00000
   42     -7.26437    2.00000
   43     -7.26437    2.00000
   44     -7.24604    2.00000
   45     -7.01615    2.00000
   46     -6.86198    2.00000
   47     -6.86197    2.00000
   48     -6.77937    2.00000
   49     -6.55481    2.00000
   50     -6.55481    2.00000
   51     -6.49689    2.00000
   52     -6.41906    2.00000
   53     -6.35797    2.00000
   54     -6.26211    2.00000
   55     -6.26210    2.00000
   56     -6.23768    2.00000
   57     -6.09047    2.00000
   58     -6.09047    2.00000
   59     -6.06282    2.00000
   60     -5.76392    2.00000
   61     -5.71758    2.00000
   62     -5.64851    2.00000
   63     -5.57969    2.00000
   64     -5.47429    2.00000
   65     -5.47428    2.00000
   66     -5.40431    2.00000
   67     -5.40431    2.00000
   68     -5.30663    2.00000
   69     -5.30663    2.00000
   70     -5.26306    2.00000
   71     -5.14254    2.00000
   72     -5.07986    2.00000
   73     -4.91494    2.00000
   74     -4.88620    2.00000
   75     -4.88620    2.00000
   76     -4.84403    2.00000
   77     -4.71891    2.00000
   78     -4.71890    2.00000
   79     -4.69978    2.00000
   80     -4.50969    2.00000
   81     -4.50327    2.00000
   82     -4.49547    2.00000
   83     -4.44872    1.99999
   84     -4.44871    1.99999
   85     -4.42895    1.99999
   86     -4.39911    1.99999
   87     -4.37129    1.99999
   88     -4.02228    1.99955
   89     -3.92084    1.99877
   90     -3.92082    1.99877
   91     -3.73874    1.99242
   92     -3.73873    1.99242
   93     -3.70670    1.98957
   94     -3.69878    1.98871
   95     -3.69878    1.98871
   96     -3.64889    1.98148
   97     -3.46151    1.88523
   98     -3.45819    1.88159
   99     -3.45819    1.88159
  100     -3.43902    1.85834
  101     -3.40698    1.80991
  102     -3.40697    1.80990
  103     -3.36005    1.71246
  104     -3.34152    1.66375
  105     -3.24606    1.31149
  106     -3.24605    1.31144
  107     -3.20265    1.10474
  108     -2.97596    0.22678
  109     -2.95905    0.19493
  110     -2.95905    0.19493
  111     -2.93823    0.16124
  112     -2.72172    0.01992
  113     -2.63166    0.00814
  114     -2.63166    0.00814
  115     -2.58016    0.00487
  116     -2.58015    0.00487
  117     -2.56766    0.00430
  118     -2.56486    0.00418
  119     -2.54221    0.00334
  120     -2.47833    0.00176
  121     -2.38487    0.00069
  122     -2.38487    0.00069
  123     -2.26433    0.00021
  124     -2.19496    0.00010
  125     -2.10564    0.00004
  126     -2.04991    0.00002
  127     -2.04991    0.00002
  128     -2.00580    0.00002
  129     -1.84593    0.00000
  130     -1.84592    0.00000
  131     -1.76395    0.00000

Gap: 0.227 eV
Transition (v -> c):
  (s=0, k=0, n=107, [0.00, 0.00, 0.00]) -> (s=0, k=0, n=108, [0.00, 0.00, 0.00])
Writing to ./calculators/calc71.gpw (mode='')

Timing:                              incl.     excl.
-----------------------------------------------------------
Hamiltonian:                        17.503     0.023   0.0% |
 Atomic:                             1.032     0.007   0.0% |
  XC Correction:                     1.026     1.026   0.0% |
 Calculate atomic Hamiltonians:     15.260    15.260   0.5% |
 Communicate:                        0.000     0.000   0.0% |
 Initialize Hamiltonian:             0.000     0.000   0.0% |
 Poisson:                            0.044     0.044   0.0% |
 XC 3D grid:                         1.143     1.143   0.0% |
LCAO initialization:                 8.302     0.020   0.0% |
 LCAO eigensolver:                   0.582     0.000   0.0% |
  Calculate projections:             0.005     0.005   0.0% |
  DenseAtomicCorrection:             0.008     0.008   0.0% |
  Distribute overlap matrix:         0.000     0.000   0.0% |
  Orbital Layouts:                   0.021     0.021   0.0% |
  Potential matrix:                  0.548     0.548   0.0% |
 LCAO to grid:                       6.359     6.359   0.2% |
 Set positions (LCAO WFS):           1.341     0.277   0.0% |
  Basic WFS set positions:           0.011     0.011   0.0% |
  Basis functions set positions:     0.001     0.001   0.0% |
  P tci:                             0.746     0.746   0.0% |
  ST tci:                            0.235     0.235   0.0% |
  mktci:                             0.073     0.073   0.0% |
PWDescriptor:                        0.041     0.041   0.0% |
SCF-cycle:                        3074.851     0.075   0.0% |
 Davidson:                        1067.753   495.635  15.8% |-----|
  Apply H:                         101.066    97.939   3.1% ||
   HMM T:                            3.127     3.127   0.1% |
  Subspace diag:                   141.330     0.019   0.0% |
   calc_h_matrix:                  118.258    14.038   0.4% |
    Apply H:                       104.219    97.896   3.1% ||
     HMM T:                          6.323     6.323   0.2% |
   diagonalize:                      0.266     0.266   0.0% |
   rotate_psi:                      22.788    22.788   0.7% |
  calc. matrices:                  285.565    83.285   2.7% ||
   Apply H:                        202.280   195.896   6.3% |--|
    HMM T:                           6.384     6.384   0.2% |
  diagonalize:                       1.630     1.630   0.1% |
  rotate_psi:                       42.527    42.527   1.4% ||
 Density:                          981.037     0.002   0.0% |
  Atomic density matrices:           0.573     0.573   0.0% |
  Mix:                             917.198   917.198  29.3% |-----------|
  Multipole moments:                 0.109     0.109   0.0% |
  Pseudo density:                   63.155    48.113   1.5% ||
   Symmetrize density:              15.042    15.042   0.5% |
 Hamiltonian:                     1023.709     1.338   0.0% |
  Atomic:                           64.174     0.425   0.0% |
   XC Correction:                   63.749    63.749   2.0% ||
  Calculate atomic Hamiltonians:   884.126   884.126  28.3% |----------|
  Communicate:                       0.001     0.001   0.0% |
  Poisson:                           2.391     2.391   0.1% |
  XC 3D grid:                       71.680    71.680   2.3% ||
 Orthonormalize:                     2.277     0.000   0.0% |
  calc_s_matrix:                     0.101     0.101   0.0% |
  inverse-cholesky:                  0.001     0.001   0.0% |
  projections:                       1.920     1.920   0.1% |
  rotate_psi_s:                      0.256     0.256   0.0% |
Set symmetry:                        0.002     0.002   0.0% |
Other:                              28.282    28.282   0.9% |
-----------------------------------------------------------
Total:                                      3128.982 100.0%

Memory usage: 4.92 GiB
Date: Wed Mar  4 10:00:06 2020
