
  ___ ___ ___ _ _ _  
 |   |   |_  | | | | 
 | | | | | . | | | | 
 |__ |  _|___|_____|  19.8.1
 |___|_|             

User:   ericlin@hebbe02-1
Date:   Wed Mar  4 08:23:10 2020
Arch:   x86_64
Pid:    31505
Python: 3.7.2
gpaw:   /apps/Hebbe7/software/MPI/intel/2019.1.144-GCC-8.2.0-2.31.1/impi/2018.4.274/GPAW/19.8.1-Python-3.7.2/lib/python3.7/site-packages/gpaw
_gpaw:  /apps/Hebbe7/software/MPI/intel/2019.1.144-GCC-8.2.0-2.31.1/impi/2018.4.274/GPAW/19.8.1-Python-3.7.2/bin/
        gpaw-python
ase:    /apps/Hebbe7/software/MPI/intel/2019.1.144-GCC-8.2.0-2.31.1/impi/2018.4.274/ASE/3.18.0-Python-3.7.2/lib/python3.7/site-packages/ase (version 3.18.0)
numpy:  /apps/Hebbe7/software/MPI/intel/2019.1.144-GCC-8.2.0-2.31.1/impi/2018.4.274/SciPy-bundle/2019.03/lib/python3.7/site-packages/numpy (version 1.16.2)
scipy:  /apps/Hebbe7/software/MPI/intel/2019.1.144-GCC-8.2.0-2.31.1/impi/2018.4.274/SciPy-bundle/2019.03/lib/python3.7/site-packages/scipy (version 1.2.1)
libxc:  4.3.4
units:  Angstrom and eV
cores:  1

Input parameters:
  mode: {ecut: 300.0,
         gammacentered: False,
         name: pw}

System changes: positions, numbers, cell, pbc, initial_charges, initial_magmoms 

Initialize ...

Al-setup:
  name: Aluminium
  id: 2e6447feaea722efcff26bf034b25f30
  Z: 13
  valence: 3
  core: 10
  charge: 0.0
  file: /apps/Common/Core/GPAW-setups/0.9.20000/Al.LDA.gz
  compensation charges: gauss, rc=0.34, lmax=2
  cutoffs: 1.91(filt), 2.36(core),
  valence states:
                energy  radius
    3s(2.00)    -7.830   1.085
    3p(1.00)    -2.783   1.085
    *s          19.382   1.085
    *p          24.428   1.085
    *d           0.000   1.085

  Using partial waves for Al as LCAO basis

Reference energy: -85519.476996

Spin-paired calculation

Occupation numbers:
  Fermi-Dirac: width=0.1000 eV

Convergence criteria:
  Maximum total energy change: 0.0005 eV / electron
  Maximum integral of absolute density change: 0.0001 electrons
  Maximum integral of absolute eigenstate change: 4e-08 eV^2
  Maximum number of iterations: 333

Symmetries present (total): 48

  ( 1  0  0)  ( 1  0  0)  ( 1  0  0)  ( 1  0  0)  ( 1  0  0)  ( 1  0  0)
  ( 0  1  0)  ( 0  1  0)  ( 0  0  1)  ( 0  0  1)  ( 0  0 -1)  ( 0  0 -1)
  ( 0  0  1)  ( 0  0 -1)  ( 0  1  0)  ( 0 -1  0)  ( 0  1  0)  ( 0 -1  0)

  ( 1  0  0)  ( 1  0  0)  ( 0  1  0)  ( 0  1  0)  ( 0  1  0)  ( 0  1  0)
  ( 0 -1  0)  ( 0 -1  0)  ( 1  0  0)  ( 1  0  0)  ( 0  0  1)  ( 0  0  1)
  ( 0  0  1)  ( 0  0 -1)  ( 0  0  1)  ( 0  0 -1)  ( 1  0  0)  (-1  0  0)

  ( 0  1  0)  ( 0  1  0)  ( 0  1  0)  ( 0  1  0)  ( 0  0  1)  ( 0  0  1)
  ( 0  0 -1)  ( 0  0 -1)  (-1  0  0)  (-1  0  0)  ( 1  0  0)  ( 1  0  0)
  ( 1  0  0)  (-1  0  0)  ( 0  0  1)  ( 0  0 -1)  ( 0  1  0)  ( 0 -1  0)

  ( 0  0  1)  ( 0  0  1)  ( 0  0  1)  ( 0  0  1)  ( 0  0  1)  ( 0  0  1)
  ( 0  1  0)  ( 0  1  0)  ( 0 -1  0)  ( 0 -1  0)  (-1  0  0)  (-1  0  0)
  ( 1  0  0)  (-1  0  0)  ( 1  0  0)  (-1  0  0)  ( 0  1  0)  ( 0 -1  0)

  ( 0  0 -1)  ( 0  0 -1)  ( 0  0 -1)  ( 0  0 -1)  ( 0  0 -1)  ( 0  0 -1)
  ( 1  0  0)  ( 1  0  0)  ( 0  1  0)  ( 0  1  0)  ( 0 -1  0)  ( 0 -1  0)
  ( 0  1  0)  ( 0 -1  0)  ( 1  0  0)  (-1  0  0)  ( 1  0  0)  (-1  0  0)

  ( 0  0 -1)  ( 0  0 -1)  ( 0 -1  0)  ( 0 -1  0)  ( 0 -1  0)  ( 0 -1  0)
  (-1  0  0)  (-1  0  0)  ( 1  0  0)  ( 1  0  0)  ( 0  0  1)  ( 0  0  1)
  ( 0  1  0)  ( 0 -1  0)  ( 0  0  1)  ( 0  0 -1)  ( 1  0  0)  (-1  0  0)

  ( 0 -1  0)  ( 0 -1  0)  ( 0 -1  0)  ( 0 -1  0)  (-1  0  0)  (-1  0  0)
  ( 0  0 -1)  ( 0  0 -1)  (-1  0  0)  (-1  0  0)  ( 0  1  0)  ( 0  1  0)
  ( 1  0  0)  (-1  0  0)  ( 0  0  1)  ( 0  0 -1)  ( 0  0  1)  ( 0  0 -1)

  (-1  0  0)  (-1  0  0)  (-1  0  0)  (-1  0  0)  (-1  0  0)  (-1  0  0)
  ( 0  0  1)  ( 0  0  1)  ( 0  0 -1)  ( 0  0 -1)  ( 0 -1  0)  ( 0 -1  0)
  ( 0  1  0)  ( 0 -1  0)  ( 0  1  0)  ( 0 -1  0)  ( 0  0  1)  ( 0  0 -1)

1 k-point (Gamma)
1 k-point in the irreducible part of the Brillouin zone
       k-points in crystal coordinates                weights
   0:     0.00000000    0.00000000    0.00000000          1/1

Wave functions: Plane wave expansion
  Cutoff energy: 300.000 eV
  Number of coefficients: 47089 (reduced to 23545)
  Pulay-stress correction: 0.000000 eV/Ang^3 (de/decut=0.000000)
  Using FFTW library
  ScaLapack parameters: grid=1x1, blocksize=None
  Wavefunction extrapolation:
    Improved wavefunction reuse through dual PAW basis 

Eigensolver
   Davidson(niter=2, smin=None, normalize=True) 

Densities:
  Coarse grid: 64*64*64 grid
  Fine grid: 128*128*128 grid
  Total Charge: 0.000000 

Density mixing:
  Method: separate
  Backend: pulay
  Linear mixing parameter: 0.05
  Mixing with 5 old densities
  Damping of long wave oscillations: 50 

Hamiltonian:
  XC and Coulomb potentials evaluated on a 128*128*128 grid
  Using the LDA Exchange-Correlation functional
 

Memory estimate:
  Process memory now: 188.29 MiB
  Calculator: 186.82 MiB
    Density: 121.82 MiB
      Arrays: 52.00 MiB
      Localized functions: 49.82 MiB
      Mixer: 20.00 MiB
    Hamiltonian: 35.02 MiB
      Arrays: 34.00 MiB
      XC: 0.00 MiB
      Poisson: 0.00 MiB
      vbar: 1.02 MiB
    Wavefunctions: 29.98 MiB
      Arrays psit_nG: 10.06 MiB
      Eigensolver: 11.92 MiB
      Projections: 0.04 MiB
      Projectors: 2.51 MiB
      PW-descriptor: 5.45 MiB

Total number of cores used: 1

Number of atoms: 13
Number of atomic orbitals: 52
Number of bands in calculation: 28
Bands to converge: occupied states only
Number of valence electrons: 39

... initialized

Initializing position-dependent things.

Density initialized from atomic densities
Creating initial wave functions:
  28 bands from LCAO basis set

           .--------------------------------------.  
          /|                                      |  
         / |                                      |  
        /  |                                      |  
       /   |                                      |  
      /    |                                      |  
     /     |                                      |  
    /      |                                      |  
   /       |                                      |  
  /        |                                      |  
 *         |                                      |  
 |         |               Al                     |  
 |         |         Al       Al                  |  
 |         |          AlAl     Al                 |  
 |         |                                      |  
 |         |             Al                       |  
 |         |        Al     AlAl                   |  
 |         |         Al       Al                  |  
 |         |            Al                        |  
 |         .--------------------------------------.  
 |        /                                      /   
 |       /                                      /    
 |      /                                      /     
 |     /                                      /      
 |    /                                      /       
 |   /                                      /        
 |  /                                      /         
 | /                                      /          
 |/                                      /           
 *--------------------------------------*            

Positions:
   0 Al     7.930480    6.000000    6.000000    ( 0.0000,  0.0000,  0.0000)
   1 Al     6.000000    7.930480    6.000000    ( 0.0000,  0.0000,  0.0000)
   2 Al     9.860960    7.930480    6.000000    ( 0.0000,  0.0000,  0.0000)
   3 Al     7.930480    9.860960    6.000000    ( 0.0000,  0.0000,  0.0000)
   4 Al     6.000000    6.000000    7.930480    ( 0.0000,  0.0000,  0.0000)
   5 Al     9.860960    6.000000    7.930480    ( 0.0000,  0.0000,  0.0000)
   6 Al     7.930480    6.000000    9.860960    ( 0.0000,  0.0000,  0.0000)
   7 Al     6.000000    9.860960    7.930480    ( 0.0000,  0.0000,  0.0000)
   8 Al     6.000000    7.930480    9.860960    ( 0.0000,  0.0000,  0.0000)
   9 Al     7.930480    7.930480    7.930480    ( 0.0000,  0.0000,  0.0000)
  10 Al     9.860960    9.860960    7.930480    ( 0.0000,  0.0000,  0.0000)
  11 Al     9.860960    7.930480    9.860960    ( 0.0000,  0.0000,  0.0000)
  12 Al     7.930480    9.860960    9.860960    ( 0.0000,  0.0000,  0.0000)

Unit cell:
           periodic     x           y           z      points  spacing
  1. axis:    yes   15.860960    0.000000    0.000000    64     0.2478
  2. axis:    yes    0.000000   15.860960    0.000000    64     0.2478
  3. axis:    yes    0.000000    0.000000   15.860960    64     0.2478

  Lengths:  15.860960  15.860960  15.860960
  Angles:   90.000000  90.000000  90.000000

Effective grid spacing dv^(1/3) = 0.2478

                     log10-error:    total        iterations:
           time      wfs    density  energy       fermi  poisson
iter:   1  08:23:15  +0.28   +inf   -42.466344    5             
iter:   2  08:23:18  -0.89  -0.76   -42.064254    5             
iter:   3  08:23:21  -1.14  -0.78   -40.256968    33            
iter:   4  08:23:23  -2.06  -1.14   -40.289614    6             
iter:   5  08:23:26  -1.19  -1.11   -41.880091    34            
iter:   6  08:23:29  -1.10  -0.94   -40.322642    34            
iter:   7  08:23:32  -2.35  -1.44   -40.263633    5             
iter:   8  08:23:35  -2.58  -1.47   -40.256268    5             
iter:   9  08:23:38  -2.88  -1.61   -40.208191    4             
iter:  10  08:23:41  -3.06  -1.83   -40.191284    3             
iter:  11  08:23:44  -2.83  -2.02   -40.193371    5             
iter:  12  08:23:47  -3.42  -2.07   -40.185552    4             
iter:  13  08:23:50  -3.76  -2.91   -40.185678    3             
iter:  14  08:23:53  -4.01  -3.14   -40.185715    3             
iter:  15  08:23:56  -4.21  -3.30   -40.185766    2             
iter:  16  08:23:58  -4.32  -3.21   -40.186121    3             
iter:  17  08:24:01  -4.54  -2.78   -40.185842    3             
iter:  18  08:24:04  -4.73  -3.06   -40.185777    3             
iter:  19  08:24:07  -4.93  -3.39   -40.185771    3             
iter:  20  08:24:10  -5.14  -3.65   -40.185779    2             
iter:  21  08:24:13  -5.34  -3.60   -40.185778    2             
iter:  22  08:24:16  -5.50  -3.72   -40.185780    3             
iter:  23  08:24:19  -5.70  -3.82   -40.185779    2             
iter:  24  08:24:22  -5.91  -3.94   -40.185779    2             
iter:  25  08:24:25  -6.00  -4.03   -40.185783    3             
iter:  26  08:24:28  -6.22  -3.78   -40.185788    2             
iter:  27  08:24:31  -6.28  -3.61   -40.185779    3             
iter:  28  08:24:33  -6.59  -4.17   -40.185781    2             
iter:  29  08:24:36  -6.76  -3.84   -40.185779    2             
iter:  30  08:24:39  -6.98  -4.11   -40.185779    2             
iter:  31  08:24:42  -7.19  -4.26   -40.185779    2             
iter:  32  08:24:45  -7.38  -4.30   -40.185779    2             
iter:  33  08:24:48  -7.53  -4.34   -40.185779    2             

Converged after 33 iterations.

Dipole moment: (-0.000000, -0.000000, -0.000000) |e|*Ang

Energy contributions relative to reference atoms: (reference = -85519.476996)

Kinetic:        +45.887030
Potential:      -34.397115
External:        +0.000000
XC:             -51.502314
Entropy (-ST):   -0.271890
Local:           -0.037435
--------------------------
Free energy:    -40.321723
Extrapolated:   -40.185779

Fermi level: -3.96604

 Band  Eigenvalues  Occupancy
    0    -12.92941    2.00000
    1    -10.62914    2.00000
    2    -10.62914    2.00000
    3    -10.62914    2.00000
    4     -8.28911    2.00000
    5     -8.28911    2.00000
    6     -8.28911    2.00000
    7     -7.12698    2.00000
    8     -7.12698    2.00000
    9     -6.97718    2.00000
   10     -5.58138    2.00000
   11     -5.26233    2.00000
   12     -5.26233    2.00000
   13     -5.26233    2.00000
   14     -4.77830    1.99941
   15     -4.77830    1.99941
   16     -4.77830    1.99941
   17     -4.12718    1.66722
   18     -4.12718    1.66722
   19     -4.12718    1.66722
   20     -2.90361    0.00005
   21     -2.90361    0.00005
   22     -2.90361    0.00005
   23     -2.55249    0.00000
   24     -2.55249    0.00000
   25     -1.91220    0.00000
   26     -1.91220    0.00000
   27     -1.91220    0.00000

Gap: 1.224 eV
Transition (v -> c):
  (s=0, k=0, n=19, [0.00, 0.00, 0.00]) -> (s=0, k=0, n=20, [0.00, 0.00, 0.00])
Writing to ./calculators/calc13.gpw (mode='')

Timing:                              incl.     excl.
-----------------------------------------------------------
Hamiltonian:                         0.906     0.004   0.0% |
 Atomic:                             0.190     0.002   0.0% |
  XC Correction:                     0.188     0.188   0.2% |
 Calculate atomic Hamiltonians:      0.327     0.327   0.3% |
 Communicate:                        0.000     0.000   0.0% |
 Initialize Hamiltonian:             0.000     0.000   0.0% |
 Poisson:                            0.017     0.017   0.0% |
 XC 3D grid:                         0.367     0.367   0.3% |
LCAO initialization:                 0.374     0.021   0.0% |
 LCAO eigensolver:                   0.057     0.000   0.0% |
  Calculate projections:             0.000     0.000   0.0% |
  DenseAtomicCorrection:             0.000     0.000   0.0% |
  Distribute overlap matrix:         0.000     0.000   0.0% |
  Orbital Layouts:                   0.001     0.001   0.0% |
  Potential matrix:                  0.055     0.055   0.1% |
 LCAO to grid:                       0.169     0.169   0.2% |
 Set positions (LCAO WFS):           0.127     0.021   0.0% |
  Basic WFS set positions:           0.019     0.019   0.0% |
  Basis functions set positions:     0.000     0.000   0.0% |
  P tci:                             0.063     0.063   0.1% |
  ST tci:                            0.013     0.013   0.0% |
  mktci:                             0.011     0.011   0.0% |
PWDescriptor:                        0.019     0.019   0.0% |
SCF-cycle:                          94.335     0.033   0.0% |
 Davidson:                          21.427     6.447   6.0% |-|
  Apply H:                           3.139     3.024   2.8% ||
   HMM T:                            0.115     0.115   0.1% |
  Subspace diag:                     3.738     0.005   0.0% |
   calc_h_matrix:                    3.311     0.143   0.1% |
    Apply H:                         3.167     3.029   2.8% ||
     HMM T:                          0.138     0.138   0.1% |
   diagonalize:                      0.021     0.021   0.0% |
   rotate_psi:                       0.400     0.400   0.4% |
  calc. matrices:                    7.271     0.990   0.9% |
   Apply H:                          6.280     6.044   5.6% |-|
    HMM T:                           0.237     0.237   0.2% |
  diagonalize:                       0.047     0.047   0.0% |
  rotate_psi:                        0.785     0.785   0.7% |
 Density:                           45.483     0.001   0.0% |
  Atomic density matrices:           0.220     0.220   0.2% |
  Mix:                              11.543    11.543  10.7% |---|
  Multipole moments:                 0.013     0.013   0.0% |
  Pseudo density:                   33.706     1.562   1.4% ||
   Symmetrize density:              32.144    32.144  29.8% |-----------|
 Hamiltonian:                       27.323     0.146   0.1% |
  Atomic:                            6.092     0.054   0.1% |
   XC Correction:                    6.038     6.038   5.6% |-|
  Calculate atomic Hamiltonians:     9.322     9.322   8.6% |--|
  Communicate:                       0.000     0.000   0.0% |
  Poisson:                           0.336     0.336   0.3% |
  XC 3D grid:                       11.427    11.427  10.6% |---|
 Orthonormalize:                     0.069     0.000   0.0% |
  calc_s_matrix:                     0.004     0.004   0.0% |
  inverse-cholesky:                  0.001     0.001   0.0% |
  projections:                       0.058     0.058   0.1% |
  rotate_psi_s:                      0.006     0.006   0.0% |
Set symmetry:                        0.013     0.013   0.0% |
Other:                              12.146    12.146  11.3% |----|
-----------------------------------------------------------
Total:                                       107.793 100.0%

Memory usage: 510.88 MiB
Date: Wed Mar  4 08:24:57 2020
