
  ___ ___ ___ _ _ _  
 |   |   |_  | | | | 
 | | | | | . | | | | 
 |__ |  _|___|_____|  19.8.1
 |___|_|             

User:   ericlin@hebbe04-9
Date:   Tue Mar  3 10:34:07 2020
Arch:   x86_64
Pid:    22996
Python: 3.7.2
gpaw:   /apps/Hebbe7/software/MPI/intel/2019.1.144-GCC-8.2.0-2.31.1/impi/2018.4.274/GPAW/19.8.1-Python-3.7.2/lib/python3.7/site-packages/gpaw
_gpaw:  /apps/Hebbe7/software/MPI/intel/2019.1.144-GCC-8.2.0-2.31.1/impi/2018.4.274/GPAW/19.8.1-Python-3.7.2/bin/
        gpaw-python
ase:    /apps/Hebbe7/software/MPI/intel/2019.1.144-GCC-8.2.0-2.31.1/impi/2018.4.274/ASE/3.18.0-Python-3.7.2/lib/python3.7/site-packages/ase (version 3.18.0)
numpy:  /apps/Hebbe7/software/MPI/intel/2019.1.144-GCC-8.2.0-2.31.1/impi/2018.4.274/SciPy-bundle/2019.03/lib/python3.7/site-packages/numpy (version 1.16.2)
scipy:  /apps/Hebbe7/software/MPI/intel/2019.1.144-GCC-8.2.0-2.31.1/impi/2018.4.274/SciPy-bundle/2019.03/lib/python3.7/site-packages/scipy (version 1.2.1)
libxc:  4.3.4
units:  Angstrom and eV
cores:  1

Input parameters:
  mode: {ecut: 300.0,
         gammacentered: False,
         name: pw}

System changes: positions, numbers, cell, pbc, initial_charges, initial_magmoms 

Initialize ...

Al-setup:
  name: Aluminium
  id: 2e6447feaea722efcff26bf034b25f30
  Z: 13
  valence: 3
  core: 10
  charge: 0.0
  file: /apps/Common/Core/GPAW-setups/0.9.20000/Al.LDA.gz
  compensation charges: gauss, rc=0.34, lmax=2
  cutoffs: 1.91(filt), 2.36(core),
  valence states:
                energy  radius
    3s(2.00)    -7.830   1.085
    3p(1.00)    -2.783   1.085
    *s          19.382   1.085
    *p          24.428   1.085
    *d           0.000   1.085

  Using partial waves for Al as LCAO basis

Reference energy: -342077.907982

Spin-paired calculation

Occupation numbers:
  Fermi-Dirac: width=0.1000 eV

Convergence criteria:
  Maximum total energy change: 0.0005 eV / electron
  Maximum integral of absolute density change: 0.0001 electrons
  Maximum integral of absolute eigenstate change: 4e-08 eV^2
  Maximum number of iterations: 333

Symmetries present (total): 2

  ( 1  0  0)  ( 1  0  0)
  ( 0  1  0)  ( 0 -1  0)
  ( 0  0  1)  ( 0  0  1)

1 k-point (Gamma)
1 k-point in the irreducible part of the Brillouin zone
       k-points in crystal coordinates                weights
   0:     0.00000000    0.00000000    0.00000000          1/1

Wave functions: Plane wave expansion
  Cutoff energy: 300.000 eV
  Number of coefficients: 114461 (reduced to 57231)
  Pulay-stress correction: 0.000000 eV/Ang^3 (de/decut=0.000000)
  Using FFTW library
  ScaLapack parameters: grid=1x1, blocksize=None
  Wavefunction extrapolation:
    Improved wavefunction reuse through dual PAW basis 

Eigensolver
   Davidson(niter=2, smin=None, normalize=True) 

Densities:
  Coarse grid: 90*81*90 grid
  Fine grid: 180*162*180 grid
  Total Charge: 0.000000 

Density mixing:
  Method: separate
  Backend: pulay
  Linear mixing parameter: 0.05
  Mixing with 5 old densities
  Damping of long wave oscillations: 50 

Hamiltonian:
  XC and Coulomb potentials evaluated on a 180*162*180 grid
  Using the LDA Exchange-Correlation functional
 

Memory estimate:
  Process memory now: 2170.29 MiB
  Calculator: 585.35 MiB
    Density: 301.34 MiB
      Arrays: 130.15 MiB
      Localized functions: 121.14 MiB
      Mixer: 50.06 MiB
    Hamiltonian: 87.57 MiB
      Arrays: 85.10 MiB
      XC: 0.00 MiB
      Poisson: 0.00 MiB
      vbar: 2.47 MiB
    Wavefunctions: 196.44 MiB
      Arrays psit_nG: 85.58 MiB
      Eigensolver: 90.68 MiB
      Projections: 0.51 MiB
      Projectors: 6.11 MiB
      PW-descriptor: 13.55 MiB

Total number of cores used: 1

Number of atoms: 52
Number of atomic orbitals: 208
Number of bands in calculation: 98
Bands to converge: occupied states only
Number of valence electrons: 156

... initialized

Initializing position-dependent things.

Density initialized from atomic densities
Creating initial wave functions:
  98 bands from LCAO basis set

             .-----------------------------------------------------.  
            /|                                                     |  
           / |                                                     |  
          /  |                                                     |  
         /   |                                                     |  
        /    |                                                     |  
       /     |                                                     |  
      /      |                                                     |  
     /       |                                                     |  
    /        |                                                     |  
   /         |                                                     |  
  /          |                                                     |  
 *           |                        Al                           |  
 |           |                  Al     AlAl                        |  
 |           |                   Al        Al                      |  
 |           |                     Al                              |  
 |           |            Al      AlAl      AlAl                   |  
 |           |              AlAl      AlAl     Al                  |  
 |           |        Al     AlAl Al   AlAl                        |  
 |           |           Al        Al        Al                    |  
 |           |         Al        Al        Al                      |  
 |           |             AlAl   Al AlAl     Al                   |  
 |           |       Al     AlAl      AlAl                         |  
 |           |        AlAl      AlAl      Al                       |  
 |           |                   Al                                |  
 |           |           Al        Al                              |  
 |           |             AlAl     Al                             |  
 |           .----------------Al-----------------------------------.  
 |          /                                                     /   
 |         /                                                     /    
 |        /                                                     /     
 |       /                                                     /      
 |      /                                                     /       
 |     /                                                     /        
 |    /                                                     /         
 |   /                                                     /          
 |  /                                                     /           
 | /                                                     /            
 |/                                                     /             
 *-----------------------------------------------------*              

Positions:
   0 Al     9.953640    8.115550    6.000000    ( 0.0000,  0.0000,  0.0000)
   1 Al     7.987560   10.087490    6.001870    ( 0.0000,  0.0000,  0.0000)
   2 Al    11.930050   10.087490    6.006020    ( 0.0000,  0.0000,  0.0000)
   3 Al     9.953640   12.059430    6.000000    ( 0.0000,  0.0000,  0.0000)
   4 Al     6.000000    8.115550    9.953650    ( 0.0000,  0.0000,  0.0000)
   5 Al     7.863230    7.990740    7.863230    ( 0.0000,  0.0000,  0.0000)
   6 Al     7.981920    6.118820    9.947670    ( 0.0000,  0.0000,  0.0000)
   7 Al     9.947670    6.118820    7.981920    ( 0.0000,  0.0000,  0.0000)
   8 Al    12.095500    7.934260    7.828020    ( 0.0000,  0.0000,  0.0000)
   9 Al    11.955210    6.000000    9.983840    ( 0.0000,  0.0000,  0.0000)
  10 Al     9.958940    8.055850    9.958950    ( 0.0000,  0.0000,  0.0000)
  11 Al    14.111024    7.934260    9.843550    ( 0.0000,  0.0000,  0.0000)
  12 Al     6.001860   10.087490    7.987560    ( 0.0000,  0.0000,  0.0000)
  13 Al     6.000000   12.059430    9.953650    ( 0.0000,  0.0000,  0.0000)
  14 Al     7.863230   12.184240    7.863230    ( 0.0000,  0.0000,  0.0000)
  15 Al     7.950990   10.087490    9.967350    ( 0.0000,  0.0000,  0.0000)
  16 Al     7.981920   14.056160    9.947670    ( 0.0000,  0.0000,  0.0000)
  17 Al     9.967340   10.087490    7.950990    ( 0.0000,  0.0000,  0.0000)
  18 Al    12.095500   12.240720    7.828020    ( 0.0000,  0.0000,  0.0000)
  19 Al    12.081310   10.087490    9.857740    ( 0.0000,  0.0000,  0.0000)
  20 Al     9.958940   12.119130    9.958950    ( 0.0000,  0.0000,  0.0000)
  21 Al     9.947670   14.056160    7.981920    ( 0.0000,  0.0000,  0.0000)
  22 Al    11.955210   14.174980    9.983840    ( 0.0000,  0.0000,  0.0000)
  23 Al    14.037522   10.087490    7.901520    ( 0.0000,  0.0000,  0.0000)
  24 Al    15.933030   10.087490   10.008990    ( 0.0000,  0.0000,  0.0000)
  25 Al    14.111024   12.240720    9.843550    ( 0.0000,  0.0000,  0.0000)
  26 Al     7.828030    7.934260   12.095499    ( 0.0000,  0.0000,  0.0000)
  27 Al     9.983840    6.000000   11.955214    ( 0.0000,  0.0000,  0.0000)
  28 Al    11.980110    8.055850   11.980104    ( 0.0000,  0.0000,  0.0000)
  29 Al    11.991380    6.118820   13.957130    ( 0.0000,  0.0000,  0.0000)
  30 Al     9.843550    7.934260   14.111020    ( 0.0000,  0.0000,  0.0000)
  31 Al    11.985410    8.115550   15.939050    ( 0.0000,  0.0000,  0.0000)
  32 Al    13.957133    6.118820   11.991379    ( 0.0000,  0.0000,  0.0000)
  33 Al    15.939050    8.115550   11.985400    ( 0.0000,  0.0000,  0.0000)
  34 Al    14.075822    7.990740   14.075820    ( 0.0000,  0.0000,  0.0000)
  35 Al     6.006020   10.087490   11.930058    ( 0.0000,  0.0000,  0.0000)
  36 Al     7.828030   12.240720   12.095499    ( 0.0000,  0.0000,  0.0000)
  37 Al     7.901530   10.087490   14.037530    ( 0.0000,  0.0000,  0.0000)
  38 Al     9.857740   10.087490   12.081308    ( 0.0000,  0.0000,  0.0000)
  39 Al    11.980110   12.119130   11.980104    ( 0.0000,  0.0000,  0.0000)
  40 Al    11.971710   10.087490   13.988060    ( 0.0000,  0.0000,  0.0000)
  41 Al     9.843550   12.240720   14.111020    ( 0.0000,  0.0000,  0.0000)
  42 Al     9.983840   14.174980   11.955214    ( 0.0000,  0.0000,  0.0000)
  43 Al    11.991380   14.056160   13.957130    ( 0.0000,  0.0000,  0.0000)
  44 Al    10.009000   10.087490   15.933030    ( 0.0000,  0.0000,  0.0000)
  45 Al    11.985410   12.059430   15.939050    ( 0.0000,  0.0000,  0.0000)
  46 Al    13.988059   10.087490   11.971703    ( 0.0000,  0.0000,  0.0000)
  47 Al    15.939050   12.059430   11.985400    ( 0.0000,  0.0000,  0.0000)
  48 Al    15.937190   10.087490   13.951490    ( 0.0000,  0.0000,  0.0000)
  49 Al    14.075822   12.184240   14.075820    ( 0.0000,  0.0000,  0.0000)
  50 Al    13.957133   14.056160   11.991379    ( 0.0000,  0.0000,  0.0000)
  51 Al    13.951493   10.087490   15.937180    ( 0.0000,  0.0000,  0.0000)

Unit cell:
           periodic     x           y           z      points  spacing
  1. axis:    yes   21.939050    0.000000    0.000000    90     0.2438
  2. axis:    yes    0.000000   20.174980    0.000000    81     0.2491
  3. axis:    yes    0.000000    0.000000   21.939050    90     0.2438

  Lengths:  21.939050  20.174980  21.939050
  Angles:   90.000000  90.000000  90.000000

Effective grid spacing dv^(1/3) = 0.2455

                     log10-error:    total        iterations:
           time      wfs    density  energy       fermi  poisson
iter:   1  10:34:52  +0.18   +inf  -185.627946    3             
iter:   2  10:35:22  -0.97  -0.81  -184.566392    4             
iter:   3  10:35:51  -1.36  -0.83  -182.115697    36            
iter:   4  10:36:20  -1.63  -0.98  -182.984299    36            
iter:   5  10:36:45  -1.42  -0.93  -181.642533    36            
iter:   6  10:37:05  -1.38  -1.30  -186.000887    35            
iter:   7  10:37:26  -1.44  -0.97  -180.926172    37            
iter:   8  10:37:46  -2.33  -1.50  -180.945907    3             
iter:   9  10:38:07  -2.59  -1.78  -180.926802    3             
iter:  10  10:38:28  -2.93  -2.00  -180.924474    3             
iter:  11  10:38:55  -2.99  -2.07  -180.922491    3             
iter:  12  10:39:19  -3.21  -2.27  -180.913957    3             
iter:  13  10:39:49  -3.24  -2.45  -180.912378    3             
iter:  14  10:40:13  -3.35  -2.39  -180.909150    3             
iter:  15  10:40:43  -3.54  -2.67  -180.907944    3             
iter:  16  10:41:07  -3.64  -2.94  -180.908491    2             
iter:  17  10:41:30  -3.74  -3.07  -180.909017    2             
iter:  18  10:41:50  -3.83  -3.13  -180.908981    2             
iter:  19  10:42:11  -3.90  -3.15  -180.909638    3             
iter:  20  10:42:31  -4.00  -3.08  -180.908857    3             
iter:  21  10:42:53  -4.09  -3.64  -180.908686    2             
iter:  22  10:43:13  -4.18  -3.67  -180.908815    2             
iter:  23  10:43:35  -4.27  -3.77  -180.908925    2             
iter:  24  10:43:59  -4.36  -3.83  -180.908918    2             
iter:  25  10:44:29  -4.44  -3.73  -180.909038    2             
iter:  26  10:44:53  -4.53  -3.91  -180.909138    2             
iter:  27  10:45:23  -4.61  -4.15  -180.909037    2             
iter:  28  10:45:48  -4.70  -3.94  -180.909123    2             
iter:  29  10:46:18  -4.79  -4.38  -180.909124    2             
iter:  30  10:46:42  -4.87  -4.47  -180.909106    2             
iter:  31  10:47:07  -4.96  -4.67  -180.909146    2             
iter:  32  10:47:28  -5.04  -4.65  -180.909140    2             
iter:  33  10:47:49  -5.12  -4.93  -180.909137    2             
iter:  34  10:48:09  -5.21  -4.79  -180.909152    2             
iter:  35  10:48:31  -5.29  -5.04  -180.909158    2             
iter:  36  10:48:51  -5.38  -5.25  -180.909162    2             
iter:  37  10:49:18  -5.46  -5.24  -180.909165    2             
iter:  38  10:49:42  -5.54  -5.21  -180.909169    2             
iter:  39  10:50:12  -5.63  -5.22  -180.909169    1             
iter:  40  10:50:37  -5.72  -5.19  -180.909171    2             
iter:  41  10:51:06  -5.80  -5.14  -180.909173    1             
iter:  42  10:51:27  -5.89  -5.13  -180.909174    2             
iter:  43  10:51:48  -5.97  -5.15  -180.909174    1             
iter:  44  10:52:08  -6.05  -5.12  -180.909174    2             
iter:  45  10:52:29  -6.14  -5.03  -180.909175    2             
iter:  46  10:52:50  -6.22  -5.14  -180.909177    2             
iter:  47  10:53:19  -6.31  -5.11  -180.909176    2             
iter:  48  10:53:42  -6.39  -5.12  -180.909172    2             
iter:  49  10:54:12  -6.48  -5.08  -180.909175    2             
iter:  50  10:54:37  -6.56  -5.06  -180.909177    2             
iter:  51  10:55:07  -6.65  -5.07  -180.909177    2             
iter:  52  10:55:31  -6.73  -5.06  -180.909175    1             
iter:  53  10:56:01  -6.81  -5.13  -180.909178    2             
iter:  54  10:56:26  -6.90  -5.15  -180.909181    2             
iter:  55  10:56:55  -6.98  -5.23  -180.909180    2             
iter:  56  10:57:15  -7.06  -5.27  -180.909176    2             
iter:  57  10:57:36  -7.15  -5.59  -180.909177    1             
iter:  58  10:57:56  -7.24  -5.65  -180.909178    2             
iter:  59  10:58:17  -7.32  -5.81  -180.909177    1             
iter:  60  10:58:37  -7.41  -5.92  -180.909177    1             

Converged after 60 iterations.

Dipole moment: (0.000002, -0.000000, -0.000001) |e|*Ang

Energy contributions relative to reference atoms: (reference = -342077.907982)

Kinetic:       +123.408726
Potential:      -71.982546
External:        +0.000000
XC:            -231.469553
Entropy (-ST):   -1.412649
Local:           -0.159479
--------------------------
Free energy:   -181.615501
Extrapolated:  -180.909177

Fermi level: -3.28432

 Band  Eigenvalues  Occupancy
    0    -13.16422    2.00000
    1    -12.58789    2.00000
    2    -12.18624    2.00000
    3    -12.17297    2.00000
    4    -11.48939    2.00000
    5    -11.48151    2.00000
    6    -11.41921    2.00000
    7    -10.98552    2.00000
    8    -10.74274    2.00000
    9    -10.29991    2.00000
   10    -10.27793    2.00000
   11    -10.25905    2.00000
   12    -10.08332    2.00000
   13    -10.06690    2.00000
   14     -9.97225    2.00000
   15     -9.38759    2.00000
   16     -9.27383    2.00000
   17     -9.14548    2.00000
   18     -8.89984    2.00000
   19     -8.82069    2.00000
   20     -8.66051    2.00000
   21     -8.63098    2.00000
   22     -8.60287    2.00000
   23     -8.40386    2.00000
   24     -8.25216    2.00000
   25     -8.24415    2.00000
   26     -8.18001    2.00000
   27     -7.57012    2.00000
   28     -7.56095    2.00000
   29     -7.36762    2.00000
   30     -7.30360    2.00000
   31     -7.21606    2.00000
   32     -7.19510    2.00000
   33     -7.19262    2.00000
   34     -7.18636    2.00000
   35     -7.12162    2.00000
   36     -6.76825    2.00000
   37     -6.74730    2.00000
   38     -6.69069    2.00000
   39     -6.48014    2.00000
   40     -6.29970    2.00000
   41     -6.22734    2.00000
   42     -5.88125    2.00000
   43     -5.85773    2.00000
   44     -5.74692    2.00000
   45     -5.60133    2.00000
   46     -5.57841    2.00000
   47     -5.56036    2.00000
   48     -5.52902    2.00000
   49     -5.37326    2.00000
   50     -5.36844    2.00000
   51     -5.33350    2.00000
   52     -5.33025    2.00000
   53     -5.17652    2.00000
   54     -5.11779    2.00000
   55     -5.04353    2.00000
   56     -4.97893    2.00000
   57     -4.96579    2.00000
   58     -4.94525    2.00000
   59     -4.76184    2.00000
   60     -4.70902    2.00000
   61     -4.42511    1.99998
   62     -4.38873    1.99997
   63     -4.35164    1.99995
   64     -4.31296    1.99993
   65     -4.18449    1.99975
   66     -4.01774    1.99870
   67     -3.92293    1.99664
   68     -3.73375    1.97790
   69     -3.68431    1.96402
   70     -3.67044    1.95878
   71     -3.66785    1.95772
   72     -3.50583    1.80318
   73     -3.48458    1.76212
   74     -3.36323    1.37526
   75     -3.35657    1.34632
   76     -3.30705    1.11313
   77     -3.30573    1.10663
   78     -3.29115    1.03414
   79     -3.25957    0.87688
   80     -3.25835    0.87086
   81     -3.15736    0.43864
   82     -3.08838    0.24706
   83     -2.95608    0.07236
   84     -2.91842    0.05022
   85     -2.84815    0.02519
   86     -2.83342    0.02178
   87     -2.58323    0.00180
   88     -2.48002    0.00064
   89     -2.35231    0.00018
   90     -2.33485    0.00015
   91     -2.20594    0.00004
   92     -2.11734    0.00002
   93     -2.11440    0.00002
   94     -2.08844    0.00001
   95     -2.06794    0.00001
   96     -2.02159    0.00001
   97     -2.02061    0.00001

Gap: 0.032 eV
Transition (v -> c):
  (s=0, k=0, n=78, [0.00, 0.00, 0.00]) -> (s=0, k=0, n=79, [0.00, 0.00, 0.00])
Writing to ./calculators/calc52.gpw (mode='')

Timing:                              incl.     excl.
-----------------------------------------------------------
Hamiltonian:                         6.952     0.052   0.0% |
 Atomic:                             0.873     0.042   0.0% |
  XC Correction:                     0.831     0.831   0.1% |
 Calculate atomic Hamiltonians:      4.737     4.737   0.3% |
 Communicate:                        0.000     0.000   0.0% |
 Initialize Hamiltonian:             0.010     0.010   0.0% |
 Poisson:                            0.295     0.295   0.0% |
 XC 3D grid:                         0.985     0.985   0.1% |
LCAO initialization:                 5.909     0.430   0.0% |
 LCAO eigensolver:                   0.600     0.069   0.0% |
  Calculate projections:             0.004     0.004   0.0% |
  DenseAtomicCorrection:             0.037     0.037   0.0% |
  Distribute overlap matrix:         0.000     0.000   0.0% |
  Orbital Layouts:                   0.117     0.117   0.0% |
  Potential matrix:                  0.373     0.373   0.0% |
 LCAO to grid:                       3.406     3.406   0.2% |
 Set positions (LCAO WFS):           1.473     0.226   0.0% |
  Basic WFS set positions:           0.070     0.070   0.0% |
  Basis functions set positions:     0.000     0.000   0.0% |
  P tci:                             0.775     0.775   0.1% |
  ST tci:                            0.193     0.193   0.0% |
  mktci:                             0.208     0.208   0.0% |
PWDescriptor:                        0.029     0.029   0.0% |
SCF-cycle:                        1436.326     0.189   0.0% |
 Davidson:                         564.653   226.446  15.4% |-----|
  Apply H:                          66.097    64.335   4.4% |-|
   HMM T:                            1.762     1.762   0.1% |
  Subspace diag:                    82.318     0.040   0.0% |
   calc_h_matrix:                   71.684     5.231   0.4% |
    Apply H:                        66.454    64.462   4.4% |-|
     HMM T:                          1.991     1.991   0.1% |
   diagonalize:                      0.131     0.131   0.0% |
   rotate_psi:                      10.463    10.463   0.7% |
  calc. matrices:                  168.907    36.596   2.5% ||
   Apply H:                        132.312   128.648   8.7% |--|
    HMM T:                           3.664     3.664   0.2% |
  diagonalize:                       0.814     0.814   0.1% |
  rotate_psi:                       20.069    20.069   1.4% ||
 Density:                          414.821     0.002   0.0% |
  Atomic density matrices:           0.362     0.362   0.0% |
  Mix:                             375.998   375.998  25.6% |---------|
  Multipole moments:                 0.077     0.077   0.0% |
  Pseudo density:                   38.382    32.311   2.2% ||
   Symmetrize density:               6.071     6.071   0.4% |
 Hamiltonian:                      455.089     0.864   0.1% |
  Atomic:                           45.755     0.305   0.0% |
   XC Correction:                   45.449    45.449   3.1% ||
  Calculate atomic Hamiltonians:   351.085   351.085  23.9% |---------|
  Communicate:                       0.001     0.001   0.0% |
  Poisson:                           1.623     1.623   0.1% |
  XC 3D grid:                       55.762    55.762   3.8% |-|
 Orthonormalize:                     1.574     0.008   0.0% |
  calc_s_matrix:                     0.098     0.098   0.0% |
  inverse-cholesky:                  0.192     0.192   0.0% |
  projections:                       1.151     1.151   0.1% |
  rotate_psi_s:                      0.125     0.125   0.0% |
Set symmetry:                        0.001     0.001   0.0% |
Other:                              22.373    22.373   1.5% ||
-----------------------------------------------------------
Total:                                      1471.590 100.0%

Memory usage: 3.16 GiB
Date: Tue Mar  3 10:58:38 2020
