
  ___ ___ ___ _ _ _  
 |   |   |_  | | | | 
 | | | | | . | | | | 
 |__ |  _|___|_____|  19.8.1
 |___|_|             

User:   ericlin@remote11.chalmers.se
Date:   Wed Jan 29 23:01:17 2020
Arch:   x86_64
Pid:    1427
Python: 3.7.4
gpaw:   /chalmers/users/ericlin/miniconda3/lib/python3.7/site-packages/gpaw
_gpaw:  /chalmers/users/ericlin/miniconda3/lib/python3.7/site-packages/
        _gpaw.cpython-37m-x86_64-linux-gnu.so
ase:    /chalmers/users/ericlin/miniconda3/lib/python3.7/site-packages/ase (version 3.19.0)
numpy:  /chalmers/users/ericlin/miniconda3/lib/python3.7/site-packages/numpy (version 1.18.1)
scipy:  /chalmers/users/ericlin/miniconda3/lib/python3.7/site-packages/scipy (version 1.3.2)
libxc:  4.3.4
units:  Angstrom and eV
cores:  1

Input parameters:
  basis: dzp
  h: 0.25
  mode: lcao
  nbands: 10
  occupations: {name: fermi-dirac,
                width: 0.05}
  setups: {Na: 1}

System changes: positions, numbers, cell, pbc, initial_charges, initial_magmoms 

Initialize ...

Na-setup:
  name: Sodium
  id: fa5c50181d04022fed15b2593599c257
  Z: 11
  valence: 1
  core: 10
  charge: 0.0
  file: /chalmers/users/ericlin/gpaw/gpaw-setups-0.9.20000/Na.1.LDA.gz
  compensation charges: gauss, rc=0.43, lmax=2
  cutoffs: 2.36(filt), 3.60(core),
  valence states:
                energy  radius
    3s(1.00)    -2.819   1.349
    3p(0.00)    -0.774   1.349
    *s          24.392   1.349

  LCAO basis set for Na:
    Name: 1.dzp
    File: /chalmers/users/ericlin/gpaw/gpaw-setups-0.9.20000/Na.1.dzp.basis.gz
    Number of radial functions: 3
    Number of spherical harmonics: 5
      l=0, rc=11.7656 Bohr: 3s-sz confined orbital
      l=0, rc=7.1094 Bohr: 3s-dz split-valence wave
      l=1, rc=11.7656 Bohr: p-type Gaussian polarization

Reference energy: -30790.959854

Spin-paired calculation

Occupation numbers:
  Fermi-Dirac: width=0.0500 eV

Convergence criteria:
  Maximum total energy change: 0.0005 eV / electron
  Maximum integral of absolute density change: 0.0001 electrons
  Maximum integral of absolute eigenstate change: 4e-08 eV^2
  Maximum number of iterations: 333

Symmetries present (total): 1

  ( 1  0  0)
  ( 0  1  0)
  ( 0  0  1)

1 k-point (Gamma)
1 k-point in the irreducible part of the Brillouin zone
       k-points in crystal coordinates                weights
   0:     0.00000000    0.00000000    0.00000000          1/1

Wave functions: LCAO
  Diagonalizer: Serial LAPACK
  Atomic Correction: dense with blas
  Datatype: float
 

Eigensolver
   LCAO using direct dense diagonalizer 

Densities:
  Coarse grid: 64*64*64 grid
  Fine grid: 128*128*128 grid
  Total Charge: 0.000000 

Density mixing:
  Method: separate
  Backend: pulay
  Linear mixing parameter: 0.25
  Mixing with 3 old densities
  No damping of long wave oscillations 

Hamiltonian:
  XC and Coulomb potentials evaluated on a 128*128*128 grid
  Using the LDA Exchange-Correlation functional
  Interpolation: tri-quintic (5. degree polynomial)
  Poisson solver: FastPoissonSolver using
    6*3+1=19 point O(h^6) finite-difference Laplacian stencil;
    FFT axes: [];
    FST axes: [0, 1, 2].
 

Memory estimate:
  Process memory now: 247.84 MiB
  Calculator: 132.36 MiB
    Density: 83.08 MiB
      Arrays: 50.70 MiB
      Localized functions: 20.93 MiB
      Mixer: 11.45 MiB
    Hamiltonian: 34.67 MiB
      Arrays: 33.16 MiB
      XC: 0.00 MiB
      Poisson: 0.00 MiB
      vbar: 1.51 MiB
    Wavefunctions: 14.61 MiB
      C [qnM]: 0.00 MiB
      S, T [2 x qmm]: 0.02 MiB
      P [aqMi]: 0.00 MiB
      BasisFunctions: 14.58 MiB
      Eigensolver: 0.00 MiB

Total number of cores used: 1

Number of atoms: 7
Number of atomic orbitals: 35
Number of bands in calculation: 10
Bands to converge: occupied states only
Number of valence electrons: 7

... initialized

Initializing position-dependent things.

Density initialized from atomic densities
           .--------------------------------------.  
          /|                                      |  
         / |                                      |  
        /  |                                      |  
       /   |                                      |  
      /    |                                      |  
     /     |                                      |  
    /      |                                      |  
   /       |                                      |  
  /        |                                      |  
 *         |                                      |  
 |         |                                      |  
 |         |            Na                        |  
 |         |                  Na                  |  
 |         |       Na     Naa                     |  
 |         |                                      |  
 |         |            Na                        |  
 |         |           Na                         |  
 |         |                                      |  
 |         |                                      |  
 |         .--------------------------------------.  
 |        /                                      /   
 |       /                                      /    
 |      /                                      /     
 |     /                                      /      
 |    /                                      /       
 |   /                                      /        
 |  /                                      /         
 | /                                      /          
 |/                                      /           
 *--------------------------------------*            

Positions:
   0 Na     7.295095    8.377601   10.378298    ( 0.0000,  0.0000,  0.0000)
   1 Na     5.370261    8.596441    8.254661    ( 0.0000,  0.0000,  0.0000)
   2 Na     6.743343    8.776481    5.726052    ( 0.0000,  0.0000,  0.0000)
   3 Na     7.770281    7.080677    7.809823    ( 0.0000,  0.0000,  0.0000)
   4 Na     7.911501    9.964813    8.064729    ( 0.0000,  0.0000,  0.0000)
   5 Na     8.720905    5.882461   10.242671    ( 0.0000,  0.0000,  0.0000)
   6 Na     9.945784    8.297000    9.235415    ( 0.0000,  0.0000,  0.0000)

Unit cell:
           periodic     x           y           z      points  spacing
  1. axis:    no    16.000000    0.000000    0.000000    64     0.2500
  2. axis:    no     0.000000   16.000000    0.000000    64     0.2500
  3. axis:    no     0.000000    0.000000   16.000000    64     0.2500

  Lengths:  16.000000  16.000000  16.000000
  Angles:   90.000000  90.000000  90.000000

Effective grid spacing dv^(1/3) = 0.2500

                     log10-error:    total        iterations:
           time      wfs    density  energy       fermi  poisson
iter:   1  23:01:21          +inf    -4.513268    4      1      
iter:   2  23:01:22         -0.57    -4.092190    32     1      
iter:   3  23:01:24         -0.88    -3.984904    35     1      
iter:   4  23:01:25         -1.31    -3.970529    4      1      
iter:   5  23:01:26         -1.97    -3.969780    4      1      
iter:   6  23:01:27         -2.34    -3.969650    3      1      
iter:   7  23:01:28         -2.57    -3.969586    3      1      
iter:   8  23:01:30         -3.17    -3.969584    2      1      
iter:   9  23:01:31         -3.35    -3.969583    2      1      
iter:  10  23:01:32         -3.80    -3.969583    2      1      
iter:  11  23:01:33         -4.05    -3.969583    2      1      

Converged after 11 iterations.

Dipole moment: (0.012385, -0.146914, -0.102198) |e|*Ang

Energy contributions relative to reference atoms: (reference = -30790.959854)

Kinetic:        +58.531061
Potential:      -47.263455
External:        +0.000000
XC:             -15.260070
Entropy (-ST):   -0.111839
Local:           +0.078801
--------------------------
Free energy:     -4.025502
Extrapolated:    -3.969583

Fermi level: -2.80615

 Band  Eigenvalues  Occupancy
    0     -5.35839    2.00000
    1     -3.81680    2.00000
    2     -2.87069    1.56856
    3     -2.85232    1.43144
    4     -1.92277    0.00000
    5     -1.39477    0.00000
    6     -1.21434    0.00000
    7      0.36964    0.00000
    8      0.70506    0.00000
    9      1.80509    0.00000

Gap: 0.930 eV
Transition (v -> c):
  (s=0, k=0, n=3, [0.00, 0.00, 0.00]) -> (s=0, k=0, n=4, [0.00, 0.00, 0.00])

Forces in eV/Ang:
  0 Na   -0.56332    0.36511    1.22731
  1 Na   -1.26346   -0.02982    0.27110
  2 Na   -0.03657    0.02731   -1.05027
  3 Na    0.09104   -1.12021   -0.75436
  4 Na    0.44006    1.33848   -0.08989
  5 Na    0.09368   -0.94880    0.42311
  6 Na    1.23850    0.36723   -0.02753

System changes: positions 

Initializing position-dependent things.

Density initialized from wave functions
           .--------------------------------------.  
          /|                                      |  
         / |                                      |  
        /  |                                      |  
       /   |                                      |  
      /    |                                      |  
     /     |                                      |  
    /      |                                      |  
   /       |                                      |  
  /        |                                      |  
 *         |                                      |  
 |         |                                      |  
 |         |            Na                        |  
 |         |                   Na                 |  
 |         |       Na     Naa                     |  
 |         |                                      |  
 |         |            Na                        |  
 |         |                                      |  
 |         |           Na                         |  
 |         |                                      |  
 |         .--------------------------------------.  
 |        /                                      /   
 |       /                                      /    
 |      /                                      /     
 |     /                                      /      
 |    /                                      /       
 |   /                                      /        
 |  /                                      /         
 | /                                      /          
 |/                                      /           
 *--------------------------------------*            

Positions:
   0 Na     7.228111    8.421017   10.524237    ( 0.0000,  0.0000,  0.0000)
   1 Na     5.220023    8.592894    8.286897    ( 0.0000,  0.0000,  0.0000)
   2 Na     6.738994    8.779728    5.601164    ( 0.0000,  0.0000,  0.0000)
   3 Na     7.781106    6.947473    7.720123    ( 0.0000,  0.0000,  0.0000)
   4 Na     7.963829   10.123972    8.054041    ( 0.0000,  0.0000,  0.0000)
   5 Na     8.732043    5.769639   10.292982    ( 0.0000,  0.0000,  0.0000)
   6 Na    10.093054    8.340667    9.232141    ( 0.0000,  0.0000,  0.0000)

Unit cell:
           periodic     x           y           z      points  spacing
  1. axis:    no    16.000000    0.000000    0.000000    64     0.2500
  2. axis:    no     0.000000   16.000000    0.000000    64     0.2500
  3. axis:    no     0.000000    0.000000   16.000000    64     0.2500

  Lengths:  16.000000  16.000000  16.000000
  Angles:   90.000000  90.000000  90.000000

Effective grid spacing dv^(1/3) = 0.2500

                     log10-error:    total        iterations:
           time      wfs    density  energy       fermi  poisson
iter:   1  23:01:35          +inf    -4.966948    4      1      
iter:   2  23:01:36         -1.39    -4.958290    3      1      
iter:   3  23:01:37         -1.64    -4.953228    3      1      
iter:   4  23:01:38         -2.11    -4.952278    3      1      
iter:   5  23:01:40         -2.43    -4.952134    3      1      
iter:   6  23:01:41         -2.69    -4.952088    3      1      
iter:   7  23:01:42         -3.31    -4.952085    3      1      
iter:   8  23:01:43         -3.72    -4.952084    2      1      
iter:   9  23:01:44         -3.97    -4.952083    2      1      
iter:  10  23:01:45         -4.50    -4.952083    2      1      

Converged after 10 iterations.

Dipole moment: (0.011398, -0.136666, -0.096336) |e|*Ang

Energy contributions relative to reference atoms: (reference = -30790.959854)

Kinetic:        +43.382784
Potential:      -35.693930
External:        +0.000000
XC:             -12.641512
Entropy (-ST):   -0.112150
Local:           +0.056649
--------------------------
Free energy:     -5.008159
Extrapolated:    -4.952083

Fermi level: -2.78132

 Band  Eigenvalues  Occupancy
    0     -5.14771    2.00000
    1     -3.70487    2.00000
    2     -2.84297    1.54872
    3     -2.82995    1.45128
    4     -1.86052    0.00000
    5     -1.45259    0.00000
    6     -1.27428    0.00000
    7      0.59370    0.00000
    8      0.85260    0.00000
    9      1.87138    0.00000

Gap: 0.969 eV
Transition (v -> c):
  (s=0, k=0, n=3, [0.00, 0.00, 0.00]) -> (s=0, k=0, n=4, [0.00, 0.00, 0.00])

Forces in eV/Ang:
  0 Na   -0.24395    0.21092    0.59862
  1 Na   -0.62150   -0.01537    0.12639
  2 Na   -0.02503    0.02276   -0.57394
  3 Na    0.04428   -0.53840   -0.36520
  4 Na    0.18301    0.65929   -0.01595
  5 Na    0.05480   -0.51624    0.24105
  6 Na    0.60925    0.17560   -0.01185

System changes: positions 

Initializing position-dependent things.

Density initialized from wave functions
           .--------------------------------------.  
          /|                                      |  
         / |                                      |  
        /  |                                      |  
       /   |                                      |  
      /    |                                      |  
     /     |                                      |  
    /      |                                      |  
   /       |                                      |  
  /        |                                      |  
 *         |                                      |  
 |         |            Na                        |  
 |         |                                      |  
 |         |                   Na                 |  
 |         |       Na     Naa                     |  
 |         |                                      |  
 |         |            Na                        |  
 |         |                                      |  
 |         |           Na                         |  
 |         |                                      |  
 |         .--------------------------------------.  
 |        /                                      /   
 |       /                                      /    
 |      /                                      /     
 |     /                                      /      
 |    /                                      /       
 |   /                                      /        
 |  /                                      /         
 | /                                      /          
 |/                                      /           
 *--------------------------------------*            

Positions:
   0 Na     7.179002    8.459070   10.639140    ( 0.0000,  0.0000,  0.0000)
   1 Na     5.101118    8.590005    8.311591    ( 0.0000,  0.0000,  0.0000)
   2 Na     6.734722    8.783398    5.495568    ( 0.0000,  0.0000,  0.0000)
   3 Na     7.789615    6.843539    7.649822    ( 0.0000,  0.0000,  0.0000)
   4 Na     8.001300   10.250042    8.048912    ( 0.0000,  0.0000,  0.0000)
   5 Na     8.741887    5.674509   10.336682    ( 0.0000,  0.0000,  0.0000)
   6 Na    10.209613    8.374633    9.229750    ( 0.0000,  0.0000,  0.0000)

Unit cell:
           periodic     x           y           z      points  spacing
  1. axis:    no    16.000000    0.000000    0.000000    64     0.2500
  2. axis:    no     0.000000   16.000000    0.000000    64     0.2500
  3. axis:    no     0.000000    0.000000   16.000000    64     0.2500

  Lengths:  16.000000  16.000000  16.000000
  Angles:   90.000000  90.000000  90.000000

Effective grid spacing dv^(1/3) = 0.2500

                     log10-error:    total        iterations:
           time      wfs    density  energy       fermi  poisson
iter:   1  23:01:47          +inf    -5.343593    4      1      
iter:   2  23:01:48         -1.57    -5.339859    4      1      
iter:   3  23:01:50         -1.87    -5.338333    4      1      
iter:   4  23:01:51         -2.24    -5.337865    3      1      
iter:   5  23:01:52         -2.60    -5.337789    2      1      
iter:   6  23:01:53         -2.92    -5.337773    3      1      
iter:   7  23:01:54         -3.33    -5.337770    3      1      
iter:   8  23:01:55         -3.81    -5.337770    2      1      
iter:   9  23:01:56         -4.10    -5.337770    2      1      

Converged after 9 iterations.

Dipole moment: (0.010260, -0.124564, -0.088690) |e|*Ang

Energy contributions relative to reference atoms: (reference = -30790.959854)

Kinetic:        +34.120504
Potential:      -28.558648
External:        +0.000000
XC:             -10.887940
Entropy (-ST):   -0.112389
Local:           +0.044509
--------------------------
Free energy:     -5.393964
Extrapolated:    -5.337770

Fermi level: -2.77404

 Band  Eigenvalues  Occupancy
    0     -4.98151    2.00000
    1     -3.61911    2.00000
    2     -2.83226    1.52423
    3     -2.82579    1.47577
    4     -1.82816    0.00000
    5     -1.50173    0.00000
    6     -1.33252    0.00000
    7      0.78333    0.00000
    8      1.01153    0.00000
    9      1.94749    0.00000

Gap: 0.998 eV
Transition (v -> c):
  (s=0, k=0, n=3, [0.00, 0.00, 0.00]) -> (s=0, k=0, n=4, [0.00, 0.00, 0.00])

Forces in eV/Ang:
  0 Na   -0.09134    0.12437    0.27791
  1 Na   -0.27978   -0.00620    0.05046
  2 Na   -0.01736    0.01557   -0.29301
  3 Na    0.02101   -0.26022   -0.17755
  4 Na    0.06188    0.31240    0.01530
  5 Na    0.03184   -0.26162    0.12796
  6 Na    0.27422    0.07565   -0.00202

System changes: positions 

Initializing position-dependent things.

Density initialized from wave functions
           .--------------------------------------.  
          /|                                      |  
         / |                                      |  
        /  |                                      |  
       /   |                                      |  
      /    |                                      |  
     /     |                                      |  
    /      |                                      |  
   /       |                                      |  
  /        |                                      |  
 *         |                                      |  
 |         |            Na                        |  
 |         |                                      |  
 |         |               Na  Na                 |  
 |         |       Na     Na                      |  
 |         |                                      |  
 |         |            Na                        |  
 |         |                                      |  
 |         |           Na                         |  
 |         |                                      |  
 |         .--------------------------------------.  
 |        /                                      /   
 |       /                                      /    
 |      /                                      /     
 |     /                                      /      
 |    /                                      /       
 |   /                                      /        
 |  /                                      /         
 | /                                      /          
 |/                                      /           
 *--------------------------------------*            

Positions:
   0 Na     7.142801    8.495951   10.734520    ( 0.0000,  0.0000,  0.0000)
   1 Na     5.003371    8.587696    8.330659    ( 0.0000,  0.0000,  0.0000)
   2 Na     6.730025    8.787605    5.401184    ( 0.0000,  0.0000,  0.0000)
   3 Na     7.796735    6.756230    7.590487    ( 0.0000,  0.0000,  0.0000)
   4 Na     8.027639   10.355889    8.049185    ( 0.0000,  0.0000,  0.0000)
   5 Na     8.751397    5.589858   10.376896    ( 0.0000,  0.0000,  0.0000)
   6 Na    10.305425    8.401840    9.228326    ( 0.0000,  0.0000,  0.0000)

Unit cell:
           periodic     x           y           z      points  spacing
  1. axis:    no    16.000000    0.000000    0.000000    64     0.2500
  2. axis:    no     0.000000   16.000000    0.000000    64     0.2500
  3. axis:    no     0.000000    0.000000   16.000000    64     0.2500

  Lengths:  16.000000  16.000000  16.000000
  Angles:   90.000000  90.000000  90.000000

Effective grid spacing dv^(1/3) = 0.2500

                     log10-error:    total        iterations:
           time      wfs    density  energy       fermi  poisson
iter:   1  23:01:58          +inf    -5.481669    4      1      
iter:   2  23:01:59         -1.65    -5.479049    4      1      
iter:   3  23:02:01         -1.99    -5.478339    4      1      
iter:   4  23:02:02         -2.31    -5.478116    3      1      
iter:   5  23:02:03         -2.63    -5.478060    3      1      
iter:   6  23:02:04         -3.10    -5.478054    3      1      
iter:   7  23:02:05         -3.48    -5.478053    2      1      
iter:   8  23:02:06         -3.90    -5.478053    2      1      
iter:   9  23:02:08         -4.23    -5.478053    2      1      

Converged after 9 iterations.

Dipole moment: (0.008568, -0.110534, -0.079380) |e|*Ang

Energy contributions relative to reference atoms: (reference = -30790.959854)

Kinetic:        +27.831659
Potential:      -23.687812
External:        +0.000000
XC:              -9.602701
Entropy (-ST):   -0.112460
Local:           +0.037031
--------------------------
Free energy:     -5.534283
Extrapolated:    -5.478053

Fermi level: -2.77499

 Band  Eigenvalues  Occupancy
    0     -4.84719    2.00000
    1     -3.55112    2.00000
    2     -2.83092    1.50750
    3     -2.82892    1.49250
    4     -1.81707    0.00000
    5     -1.54411    0.00000
    6     -1.38987    0.00000
    7      1.01220    0.00000
    8      1.19894    0.00000
    9      2.02960    0.00000

Gap: 1.012 eV
Transition (v -> c):
  (s=0, k=0, n=3, [0.00, 0.00, 0.00]) -> (s=0, k=0, n=4, [0.00, 0.00, 0.00])

Forces in eV/Ang:
  0 Na   -0.01341    0.06920    0.09277
  1 Na   -0.07531    0.00156    0.01028
  2 Na   -0.01012    0.00469   -0.11013
  3 Na    0.00911   -0.10891   -0.07544
  4 Na    0.00043    0.11089    0.02952
  5 Na    0.01510   -0.09911    0.04858
  6 Na    0.07262    0.01990    0.00387

System changes: positions 

Initializing position-dependent things.

Density initialized from wave functions
           .--------------------------------------.  
          /|                                      |  
         / |                                      |  
        /  |                                      |  
       /   |                                      |  
      /    |                                      |  
     /     |                                      |  
    /      |                                      |  
   /       |                                      |  
  /        |                                      |  
 *         |                                      |  
 |         |            Na                        |  
 |         |                                      |  
 |         |               Na   Na                |  
 |         |      Na      Na                      |  
 |         |                                      |  
 |         |            Na                        |  
 |         |                                      |  
 |         |           Na                         |  
 |         |                                      |  
 |         .--------------------------------------.  
 |        /                                      /   
 |       /                                      /    
 |      /                                      /     
 |     /                                      /      
 |    /                                      /       
 |   /                                      /        
 |  /                                      /         
 | /                                      /          
 |/                                      /           
 *--------------------------------------*            

Positions:
   0 Na     7.124622    8.527209   10.796207    ( 0.0000,  0.0000,  0.0000)
   1 Na     4.943818    8.586866    8.341087    ( 0.0000,  0.0000,  0.0000)
   2 Na     6.725654    8.790839    5.334801    ( 0.0000,  0.0000,  0.0000)
   3 Na     7.801721    6.695355    7.548790    ( 0.0000,  0.0000,  0.0000)
   4 Na     8.038807   10.426093    8.055820    ( 0.0000,  0.0000,  0.0000)
   5 Na     8.758995    5.530399   10.405836    ( 0.0000,  0.0000,  0.0000)
   6 Na    10.363600    8.417976    9.228485    ( 0.0000,  0.0000,  0.0000)

Unit cell:
           periodic     x           y           z      points  spacing
  1. axis:    no    16.000000    0.000000    0.000000    64     0.2500
  2. axis:    no     0.000000   16.000000    0.000000    64     0.2500
  3. axis:    no     0.000000    0.000000   16.000000    64     0.2500

  Lengths:  16.000000  16.000000  16.000000
  Angles:   90.000000  90.000000  90.000000

Effective grid spacing dv^(1/3) = 0.2500

                     log10-error:    total        iterations:
           time      wfs    density  energy       fermi  poisson
iter:   1  23:02:09          +inf    -5.506044    4      1      
iter:   2  23:02:11         -1.75    -5.504421    4      1      
iter:   3  23:02:12         -2.15    -5.504135    3      1      
iter:   4  23:02:13         -2.45    -5.504054    3      1      
iter:   5  23:02:14         -2.75    -5.504031    3      1      
iter:   6  23:02:15         -3.28    -5.504028    2      1      
iter:   7  23:02:16         -3.71    -5.504028    2      1      
iter:   8  23:02:18         -4.01    -5.504028    2      1      

Converged after 8 iterations.

Dipole moment: (0.006920, -0.096415, -0.070101) |e|*Ang

Energy contributions relative to reference atoms: (reference = -30790.959854)

Kinetic:        +24.297340
Potential:      -20.939488
External:        +0.000000
XC:              -8.838586
Entropy (-ST):   -0.112217
Local:           +0.032814
--------------------------
Free energy:     -5.560137
Extrapolated:    -5.504028

Fermi level: -2.77829

 Band  Eigenvalues  Occupancy
    0     -4.76191    2.00000
    1     -3.50826    2.00000
    2     -2.83918    1.54335
    3     -2.82760    1.45665
    4     -1.81804    0.00000
    5     -1.57033    0.00000
    6     -1.43216    0.00000
    7      1.22152    0.00000
    8      1.35925    0.00000
    9      2.08776    0.00000

Gap: 1.010 eV
Transition (v -> c):
  (s=0, k=0, n=3, [0.00, 0.00, 0.00]) -> (s=0, k=0, n=4, [0.00, 0.00, 0.00])

Forces in eV/Ang:
  0 Na    0.02168    0.04034    0.00228
  1 Na    0.02741    0.00686   -0.00805
  2 Na   -0.00483   -0.00590   -0.01120
  3 Na    0.00317   -0.03930   -0.02849
  4 Na   -0.02580    0.01493    0.03496
  5 Na    0.00503   -0.01200    0.00066
  6 Na   -0.02738   -0.00510    0.00793

System changes: positions 

Initializing position-dependent things.

Density initialized from wave functions
           .--------------------------------------.  
          /|                                      |  
         / |                                      |  
        /  |                                      |  
       /   |                                      |  
      /    |                                      |  
     /     |                                      |  
    /      |                                      |  
   /       |                                      |  
  /        |                                      |  
 *         |                                      |  
 |         |            Na                        |  
 |         |                                      |  
 |         |               Na   Na                |  
 |         |      Na      Na                      |  
 |         |                                      |  
 |         |            Na                        |  
 |         |                                      |  
 |         |           Na                         |  
 |         |                                      |  
 |         .--------------------------------------.  
 |        /                                      /   
 |       /                                      /    
 |      /                                      /     
 |     /                                      /      
 |    /                                      /       
 |   /                                      /        
 |  /                                      /         
 | /                                      /          
 |/                                      /           
 *--------------------------------------*            

Positions:
   0 Na     7.125621    8.535956   10.803151    ( 0.0000,  0.0000,  0.0000)
   1 Na     4.940952    8.587654    8.341116    ( 0.0000,  0.0000,  0.0000)
   2 Na     6.724512    8.790498    5.325944    ( 0.0000,  0.0000,  0.0000)
   3 Na     7.802668    6.683713    7.540606    ( 0.0000,  0.0000,  0.0000)
   4 Na     8.036511   10.435608    8.061192    ( 0.0000,  0.0000,  0.0000)
   5 Na     8.760516    5.522230   10.409217    ( 0.0000,  0.0000,  0.0000)
   6 Na    10.366315    8.419009    9.229536    ( 0.0000,  0.0000,  0.0000)

Unit cell:
           periodic     x           y           z      points  spacing
  1. axis:    no    16.000000    0.000000    0.000000    64     0.2500
  2. axis:    no     0.000000   16.000000    0.000000    64     0.2500
  3. axis:    no     0.000000    0.000000   16.000000    64     0.2500

  Lengths:  16.000000  16.000000  16.000000
  Angles:   90.000000  90.000000  90.000000

Effective grid spacing dv^(1/3) = 0.2500

                     log10-error:    total        iterations:
           time      wfs    density  energy       fermi  poisson
iter:   1  23:02:19          +inf    -5.505663    3      1      
iter:   2  23:02:21         -2.27    -5.505451    3      1      
iter:   3  23:02:22         -2.93    -5.505433    3      1      
iter:   4  23:02:23         -3.23    -5.505429    3      1      
iter:   5  23:02:24         -3.58    -5.505429    2      1      
iter:   6  23:02:25         -3.88    -5.505429    2      1      
iter:   7  23:02:26         -4.43    -5.505429    2      1      

Converged after 7 iterations.

Dipole moment: (0.006312, -0.091439, -0.066834) |e|*Ang

Energy contributions relative to reference atoms: (reference = -30790.959854)

Kinetic:        +23.912307
Potential:      -20.639608
External:        +0.000000
XC:              -8.754628
Entropy (-ST):   -0.111982
Local:           +0.032491
--------------------------
Free energy:     -5.561420
Extrapolated:    -5.505429

Fermi level: -2.77888

 Band  Eigenvalues  Occupancy
    0     -4.75160    2.00000
    1     -3.50272    2.00000
    2     -2.84220    1.56031
    3     -2.82606    1.43969
    4     -1.81731    0.00000
    5     -1.57163    0.00000
    6     -1.43826    0.00000
    7      1.25037    0.00000
    8      1.38047    0.00000
    9      2.09009    0.00000

Gap: 1.009 eV
Transition (v -> c):
  (s=0, k=0, n=3, [0.00, 0.00, 0.00]) -> (s=0, k=0, n=4, [0.00, 0.00, 0.00])

Forces in eV/Ang:
  0 Na    0.02585    0.03683   -0.00519
  1 Na    0.03712    0.00806   -0.01047
  2 Na   -0.00359   -0.00838    0.00016
  3 Na    0.00262   -0.03354   -0.02407
  4 Na   -0.02924    0.00680    0.03453
  5 Na    0.00337   -0.00216   -0.00635
  6 Na   -0.03690   -0.00814    0.00921

System changes: positions 

Initializing position-dependent things.

Density initialized from wave functions
           .--------------------------------------.  
          /|                                      |  
         / |                                      |  
        /  |                                      |  
       /   |                                      |  
      /    |                                      |  
     /     |                                      |  
    /      |                                      |  
   /       |                                      |  
  /        |                                      |  
 *         |                                      |  
 |         |            Na                        |  
 |         |                                      |  
 |         |               Na  Na                 |  
 |         |      Na      Na                      |  
 |         |                                      |  
 |         |            Na                        |  
 |         |                                      |  
 |         |           Na                         |  
 |         |                                      |  
 |         .--------------------------------------.  
 |        /                                      /   
 |       /                                      /    
 |      /                                      /     
 |     /                                      /      
 |    /                                      /       
 |   /                                      /        
 |  /                                      /         
 | /                                      /          
 |/                                      /           
 *--------------------------------------*            

Positions:
   0 Na     7.152746    8.585293   10.808462    ( 0.0000,  0.0000,  0.0000)
   1 Na     4.972811    8.596630    8.330770    ( 0.0000,  0.0000,  0.0000)
   2 Na     6.719172    8.782113    5.312126    ( 0.0000,  0.0000,  0.0000)
   3 Na     7.806643    6.633772    7.505015    ( 0.0000,  0.0000,  0.0000)
   4 Na     8.004098   10.456393    8.103183    ( 0.0000,  0.0000,  0.0000)
   5 Na     8.766224    5.507323   10.408664    ( 0.0000,  0.0000,  0.0000)
   6 Na    10.334385    8.412429    9.240086    ( 0.0000,  0.0000,  0.0000)

Unit cell:
           periodic     x           y           z      points  spacing
  1. axis:    no    16.000000    0.000000    0.000000    64     0.2500
  2. axis:    no     0.000000   16.000000    0.000000    64     0.2500
  3. axis:    no     0.000000    0.000000   16.000000    64     0.2500

  Lengths:  16.000000  16.000000  16.000000
  Angles:   90.000000  90.000000  90.000000

Effective grid spacing dv^(1/3) = 0.2500

                     log10-error:    total        iterations:
           time      wfs    density  energy       fermi  poisson
iter:   1  23:02:28          +inf    -5.523644    3      1      
iter:   2  23:02:29         -1.51    -5.518538    3      1      
iter:   3  23:02:30         -2.11    -5.517932    3      1      
iter:   4  23:02:32         -2.57    -5.517882    3      1      
iter:   5  23:02:33         -3.07    -5.517860    2      1      
iter:   6  23:02:34         -3.31    -5.517860    2      1      
iter:   7  23:02:35         -3.59    -5.517865    2      1      
iter:   8  23:02:36         -4.07    -5.517865    2      1      

Converged after 8 iterations.

Dipole moment: (0.002337, -0.059229, -0.045615) |e|*Ang

Energy contributions relative to reference atoms: (reference = -30790.959854)

Kinetic:        +23.765168
Potential:      -20.538461
External:        +0.000000
XC:              -8.722776
Entropy (-ST):   -0.107992
Local:           +0.032199
--------------------------
Free energy:     -5.571861
Extrapolated:    -5.517865

Fermi level: -2.77714

 Band  Eigenvalues  Occupancy
    0     -4.73710    2.00000
    1     -3.49261    2.00000
    2     -2.86034    1.68158
    3     -2.81013    1.31842
    4     -1.80368    0.00000
    5     -1.55748    0.00000
    6     -1.45237    0.00000
    7      1.28783    0.00000
    8      1.40137    0.00000
    9      2.05281    0.00000

Gap: 1.006 eV
Transition (v -> c):
  (s=0, k=0, n=3, [0.00, 0.00, 0.00]) -> (s=0, k=0, n=4, [0.00, 0.00, 0.00])

Forces in eV/Ang:
  0 Na    0.03224    0.03230    0.00740
  1 Na    0.03811    0.01146   -0.01681
  2 Na    0.00256   -0.01851    0.01555
  3 Na    0.00375   -0.03631   -0.02211
  4 Na   -0.03646    0.01599    0.02473
  5 Na   -0.00226    0.00905   -0.02479
  6 Na   -0.03781   -0.01493    0.01399

System changes: positions 

Initializing position-dependent things.

Density initialized from wave functions
           .--------------------------------------.  
          /|                                      |  
         / |                                      |  
        /  |                                      |  
       /   |                                      |  
      /    |                                      |  
     /     |                                      |  
    /      |                                      |  
   /       |                                      |  
  /        |                                      |  
 *         |                                      |  
 |         |            Na                        |  
 |         |                                      |  
 |         |               Na  Na                 |  
 |         |       Na     Na                      |  
 |         |                                      |  
 |         |            Na                        |  
 |         |                                      |  
 |         |           Na                         |  
 |         |                                      |  
 |         .--------------------------------------.  
 |        /                                      /   
 |       /                                      /    
 |      /                                      /     
 |     /                                      /      
 |    /                                      /       
 |   /                                      /        
 |  /                                      /         
 | /                                      /          
 |/                                      /           
 *--------------------------------------*            

Positions:
   0 Na     7.165431    8.603135   10.809593    ( 0.0000,  0.0000,  0.0000)
   1 Na     4.988703    8.600738    8.325185    ( 0.0000,  0.0000,  0.0000)
   2 Na     6.718117    8.777127    5.311956    ( 0.0000,  0.0000,  0.0000)
   3 Na     7.808204    6.616115    7.492898    ( 0.0000,  0.0000,  0.0000)
   4 Na     7.989491   10.462847    8.118369    ( 0.0000,  0.0000,  0.0000)
   5 Na     8.767352    5.505741   10.404398    ( 0.0000,  0.0000,  0.0000)
   6 Na    10.318564    8.408020    9.244968    ( 0.0000,  0.0000,  0.0000)

Unit cell:
           periodic     x           y           z      points  spacing
  1. axis:    no    16.000000    0.000000    0.000000    64     0.2500
  2. axis:    no     0.000000   16.000000    0.000000    64     0.2500
  3. axis:    no     0.000000    0.000000   16.000000    64     0.2500

  Lengths:  16.000000  16.000000  16.000000
  Angles:   90.000000  90.000000  90.000000

Effective grid spacing dv^(1/3) = 0.2500

                     log10-error:    total        iterations:
           time      wfs    density  energy       fermi  poisson
iter:   1  23:02:38          +inf    -5.525222    3      1      
iter:   2  23:02:39         -1.96    -5.524013    3      1      
iter:   3  23:02:40         -2.53    -5.523794    2      1      
iter:   4  23:02:41         -2.96    -5.523764    2      1      
iter:   5  23:02:43         -3.55    -5.523762    2      1      
iter:   6  23:02:44         -3.76    -5.523764    2      1      
iter:   7  23:02:45         -4.24    -5.523765    2      1      

Converged after 7 iterations.

Dipole moment: (0.000937, -0.047265, -0.037681) |e|*Ang

Energy contributions relative to reference atoms: (reference = -30790.959854)

Kinetic:        +23.913470
Potential:      -20.662107
External:        +0.000000
XC:              -8.754740
Entropy (-ST):   -0.105340
Local:           +0.032282
--------------------------
Free energy:     -5.576435
Extrapolated:    -5.523765

Fermi level: -2.77458

 Band  Eigenvalues  Occupancy
    0     -4.73508    2.00000
    1     -3.49133    2.00000
    2     -2.86700    1.72789
    3     -2.80249    1.27212
    4     -1.79669    0.00000
    5     -1.55046    0.00000
    6     -1.45663    0.00000
    7      1.29305    0.00000
    8      1.39881    0.00000
    9      2.03599    0.00000

Gap: 1.006 eV
Transition (v -> c):
  (s=0, k=0, n=3, [0.00, 0.00, 0.00]) -> (s=0, k=0, n=4, [0.00, 0.00, 0.00])

Forces in eV/Ang:
  0 Na    0.03064    0.03280    0.01598
  1 Na    0.03380    0.01147   -0.01669
  2 Na    0.00440   -0.02126    0.01514
  3 Na    0.00414   -0.04039   -0.02413
  4 Na   -0.03565    0.02414    0.02175
  5 Na   -0.00351    0.00756   -0.02789
  6 Na   -0.03376   -0.01537    0.01394

System changes: positions 

Initializing position-dependent things.

Density initialized from wave functions
           .--------------------------------------.  
          /|                                      |  
         / |                                      |  
        /  |                                      |  
       /   |                                      |  
      /    |                                      |  
     /     |                                      |  
    /      |                                      |  
   /       |                                      |  
  /        |                                      |  
 *         |                                      |  
 |         |            Na                        |  
 |         |                                      |  
 |         |               Na  Na                 |  
 |         |       Na     Na                      |  
 |         |                                      |  
 |         |                                      |  
 |         |            Na                        |  
 |         |           Na                         |  
 |         |                                      |  
 |         .--------------------------------------.  
 |        /                                      /   
 |       /                                      /    
 |      /                                      /     
 |     /                                      /      
 |    /                                      /       
 |   /                                      /        
 |  /                                      /         
 | /                                      /          
 |/                                      /           
 *--------------------------------------*            

Positions:
   0 Na     7.334483    8.808075   10.820013    ( 0.0000,  0.0000,  0.0000)
   1 Na     5.207430    8.656020    8.245879    ( 0.0000,  0.0000,  0.0000)
   2 Na     6.715258    8.699494    5.353136    ( 0.0000,  0.0000,  0.0000)
   3 Na     7.826866    6.412508    7.357887    ( 0.0000,  0.0000,  0.0000)
   4 Na     7.797562   10.532861    8.292019    ( 0.0000,  0.0000,  0.0000)
   5 Na     8.770995    5.520926   10.316267    ( 0.0000,  0.0000,  0.0000)
   6 Na    10.100847    8.339695    9.310557    ( 0.0000,  0.0000,  0.0000)

Unit cell:
           periodic     x           y           z      points  spacing
  1. axis:    no    16.000000    0.000000    0.000000    64     0.2500
  2. axis:    no     0.000000   16.000000    0.000000    64     0.2500
  3. axis:    no     0.000000    0.000000   16.000000    64     0.2500

  Lengths:  16.000000  16.000000  16.000000
  Angles:   90.000000  90.000000  90.000000

Effective grid spacing dv^(1/3) = 0.2500

                     log10-error:    total        iterations:
           time      wfs    density  energy       fermi  poisson
iter:   1  23:02:47          +inf    -5.544553    34     1      
iter:   2  23:02:48         -1.63    -5.541676    2      1      
iter:   3  23:02:49         -1.88    -5.540588    2      1      
iter:   4  23:02:50         -2.20    -5.540356    2      1      
iter:   5  23:02:51         -2.78    -5.540347    2      1      
iter:   6  23:02:52         -3.00    -5.540341    2      1      
iter:   7  23:02:54         -3.67    -5.540342    2      1      
iter:   8  23:02:55         -3.89    -5.540343    1      1      
iter:   9  23:02:56         -4.32    -5.540343    2      1      

Converged after 9 iterations.

Dipole moment: (-0.003747, 0.005829, -0.002554) |e|*Ang

Energy contributions relative to reference atoms: (reference = -30790.959854)

Kinetic:        +28.039341
Potential:      -24.026296
External:        +0.000000
XC:              -9.554356
Entropy (-ST):   -0.070009
Local:           +0.035973
--------------------------
Free energy:     -5.575347
Extrapolated:    -5.540343

Fermi level: -2.64830

 Band  Eigenvalues  Occupancy
    0     -4.74781    2.00000
    1     -3.50512    2.00000
    2     -3.00104    1.99828
    3     -2.64847    1.00172
    4     -1.72072    0.00000
    5     -1.52784    0.00000
    6     -1.45249    0.00000
    7      1.31834    0.00000
    8      1.33239    0.00000
    9      1.82077    0.00000

Gap: 0.928 eV
Transition (v -> c):
  (s=0, k=0, n=3, [0.00, 0.00, 0.00]) -> (s=0, k=0, n=4, [0.00, 0.00, 0.00])

Forces in eV/Ang:
  0 Na   -0.12017   -0.04271    0.21412
  1 Na   -0.12384   -0.08575    0.06589
  2 Na    0.05624    0.00107   -0.04728
  3 Na    0.00370   -0.04829   -0.03660
  4 Na    0.09836    0.19052   -0.11582
  5 Na   -0.04951   -0.04754    0.01356
  6 Na    0.13340    0.03207   -0.09729

System changes: positions 

Initializing position-dependent things.

Density initialized from wave functions
           .--------------------------------------.  
          /|                                      |  
         / |                                      |  
        /  |                                      |  
       /   |                                      |  
      /    |                                      |  
     /     |                                      |  
    /      |                                      |  
   /       |                                      |  
  /        |                                      |  
 *         |                                      |  
 |         |            Na                        |  
 |         |                                      |  
 |         |               Na  Na                 |  
 |         |       Na     Na                      |  
 |         |                                      |  
 |         |                                      |  
 |         |            Na                        |  
 |         |           Na                         |  
 |         |                                      |  
 |         .--------------------------------------.  
 |        /                                      /   
 |       /                                      /    
 |      /                                      /     
 |     /                                      /      
 |    /                                      /       
 |   /                                      /        
 |  /                                      /         
 | /                                      /          
 |/                                      /           
 *--------------------------------------*            

Positions:
   0 Na     7.273978    8.745412   10.835823    ( 0.0000,  0.0000,  0.0000)
   1 Na     5.127046    8.634067    8.274569    ( 0.0000,  0.0000,  0.0000)
   2 Na     6.719069    8.723626    5.331818    ( 0.0000,  0.0000,  0.0000)
   3 Na     7.821977    6.467685    7.394245    ( 0.0000,  0.0000,  0.0000)
   4 Na     7.863297   10.529202    8.231651    ( 0.0000,  0.0000,  0.0000)
   5 Na     8.767739    5.507891   10.346427    ( 0.0000,  0.0000,  0.0000)
   6 Na    10.181370    8.363593    9.284890    ( 0.0000,  0.0000,  0.0000)

Unit cell:
           periodic     x           y           z      points  spacing
  1. axis:    no    16.000000    0.000000    0.000000    64     0.2500
  2. axis:    no     0.000000   16.000000    0.000000    64     0.2500
  3. axis:    no     0.000000    0.000000   16.000000    64     0.2500

  Lengths:  16.000000  16.000000  16.000000
  Angles:   90.000000  90.000000  90.000000

Effective grid spacing dv^(1/3) = 0.2500

                     log10-error:    total        iterations:
           time      wfs    density  energy       fermi  poisson
iter:   1  23:02:58          +inf    -5.569602    4      1      
iter:   2  23:02:59         -1.86    -5.568690    2      1      
iter:   3  23:03:00         -2.05    -5.567924    3      1      
iter:   4  23:03:01         -2.57    -5.567828    3      1      
iter:   5  23:03:03         -3.08    -5.567826    2      1      
iter:   6  23:03:04         -3.38    -5.567837    2      1      
iter:   7  23:03:05         -3.85    -5.567840    2      1      
iter:   8  23:03:06         -4.21    -5.567840    2      1      

Converged after 8 iterations.

Dipole moment: (-0.004774, 0.010894, 0.001231) |e|*Ang

Energy contributions relative to reference atoms: (reference = -30790.959854)

Kinetic:        +25.885944
Potential:      -22.305439
External:        +0.000000
XC:              -9.145164
Entropy (-ST):   -0.074475
Local:           +0.034056
--------------------------
Free energy:     -5.605078
Extrapolated:    -5.567840

Fermi level: -2.70854

 Band  Eigenvalues  Occupancy
    0     -4.72276    2.00000
    1     -3.48921    2.00000
    2     -2.94313    1.98183
    3     -2.71036    1.01817
    4     -1.73653    0.00000
    5     -1.50650    0.00000
    6     -1.48640    0.00000
    7      1.35720    0.00000
    8      1.37048    0.00000
    9      1.90193    0.00000

Gap: 0.974 eV
Transition (v -> c):
  (s=0, k=0, n=3, [0.00, 0.00, 0.00]) -> (s=0, k=0, n=4, [0.00, 0.00, 0.00])

Forces in eV/Ang:
  0 Na   -0.03574    0.00991    0.10348
  1 Na   -0.03027   -0.02827    0.01966
  2 Na    0.02886   -0.01711   -0.01101
  3 Na    0.00405   -0.05183   -0.03571
  4 Na    0.02116    0.09974   -0.02966
  5 Na   -0.02386   -0.01808   -0.01530
  6 Na    0.03525    0.00613   -0.03320

System changes: positions 

Initializing position-dependent things.

Density initialized from wave functions
           .--------------------------------------.  
          /|                                      |  
         / |                                      |  
        /  |                                      |  
       /   |                                      |  
      /    |                                      |  
     /     |                                      |  
    /      |                                      |  
   /       |                                      |  
  /        |                                      |  
 *         |                                      |  
 |         |            Na                        |  
 |         |                                      |  
 |         |               Na  Na                 |  
 |         |      Na      Na                      |  
 |         |                                      |  
 |         |                                      |  
 |         |            Na                        |  
 |         |           Na                         |  
 |         |                                      |  
 |         .--------------------------------------.  
 |        /                                      /   
 |       /                                      /    
 |      /                                      /     
 |     /                                      /      
 |    /                                      /       
 |   /                                      /        
 |  /                                      /         
 | /                                      /          
 |/                                      /           
 *--------------------------------------*            

Positions:
   0 Na     7.172122    8.742736   11.024673    ( 0.0000,  0.0000,  0.0000)
   1 Na     4.954896    8.586008    8.325549    ( 0.0000,  0.0000,  0.0000)
   2 Na     6.739770    8.739023    5.210788    ( 0.0000,  0.0000,  0.0000)
   3 Na     7.828666    6.404998    7.349880    ( 0.0000,  0.0000,  0.0000)
   4 Na     7.949346   10.704703    8.157891    ( 0.0000,  0.0000,  0.0000)
   5 Na     8.756445    5.396128   10.403655    ( 0.0000,  0.0000,  0.0000)
   6 Na    10.354829    8.403433    9.230900    ( 0.0000,  0.0000,  0.0000)

Unit cell:
           periodic     x           y           z      points  spacing
  1. axis:    no    16.000000    0.000000    0.000000    64     0.2500
  2. axis:    no     0.000000   16.000000    0.000000    64     0.2500
  3. axis:    no     0.000000    0.000000   16.000000    64     0.2500

  Lengths:  16.000000  16.000000  16.000000
  Angles:   90.000000  90.000000  90.000000

Effective grid spacing dv^(1/3) = 0.2500

                     log10-error:    total        iterations:
           time      wfs    density  energy       fermi  poisson
iter:   1  23:03:08          +inf    -5.497147    3      1      
iter:   2  23:03:09         -1.49    -5.494242    4      1      
iter:   3  23:03:10         -1.78    -5.493440    4      1      
iter:   4  23:03:11         -2.10    -5.492897    3      1      
iter:   5  23:03:12         -2.73    -5.492854    2      1      
iter:   6  23:03:14         -3.11    -5.492864    2      1      
iter:   7  23:03:15         -3.42    -5.492873    2      1      
iter:   8  23:03:16         -3.75    -5.492876    2      1      
iter:   9  23:03:17         -4.07    -5.492876    2      1      

Converged after 9 iterations.

Dipole moment: (-0.004415, 0.014354, 0.005188) |e|*Ang

Energy contributions relative to reference atoms: (reference = -30790.959854)

Kinetic:        +18.149167
Potential:      -16.195476
External:        +0.000000
XC:              -7.430242
Entropy (-ST):   -0.084970
Local:           +0.026161
--------------------------
Free energy:     -5.535361
Extrapolated:    -5.492876

Fermi level: -2.75820

 Band  Eigenvalues  Occupancy
    0     -4.54386    2.00000
    1     -3.39873    1.99999
    2     -2.92072    1.92537
    3     -2.76567    1.07463
    4     -1.78325    0.00000
    5     -1.58869    0.00000
    6     -1.56024    0.00000
    7      1.76669    0.00000
    8      2.00474    0.00000
    9      2.13672    0.00000

Gap: 0.982 eV
Transition (v -> c):
  (s=0, k=0, n=3, [0.00, 0.00, 0.00]) -> (s=0, k=0, n=4, [0.00, 0.00, 0.00])

Forces in eV/Ang:
  0 Na    0.07294    0.03523   -0.14996
  1 Na    0.18695    0.03040   -0.03005
  2 Na    0.00137   -0.03500    0.14153
  3 Na   -0.00259    0.01878    0.01259
  4 Na   -0.06524   -0.13170    0.08577
  5 Na   -0.00630    0.12103   -0.08722
  6 Na   -0.18649   -0.03705    0.02630

System changes: positions 

Initializing position-dependent things.

Density initialized from wave functions
           .--------------------------------------.  
          /|                                      |  
         / |                                      |  
        /  |                                      |  
       /   |                                      |  
      /    |                                      |  
     /     |                                      |  
    /      |                                      |  
   /       |                                      |  
  /        |                                      |  
 *         |                                      |  
 |         |            Na                        |  
 |         |                                      |  
 |         |               Na  Na                 |  
 |         |       Na     Na                      |  
 |         |                                      |  
 |         |                                      |  
 |         |            Na                        |  
 |         |           Na                         |  
 |         |                                      |  
 |         .--------------------------------------.  
 |        /                                      /   
 |       /                                      /    
 |      /                                      /     
 |     /                                      /      
 |    /                                      /       
 |   /                                      /        
 |  /                                      /         
 | /                                      /          
 |/                                      /           
 *--------------------------------------*            

Positions:
   0 Na     7.253637    8.746120   10.875005    ( 0.0000,  0.0000,  0.0000)
   1 Na     5.105032    8.621201    8.285670    ( 0.0000,  0.0000,  0.0000)
   2 Na     6.727428    8.722790    5.318259    ( 0.0000,  0.0000,  0.0000)
   3 Na     7.823209    6.452928    7.383185    ( 0.0000,  0.0000,  0.0000)
   4 Na     7.879237   10.566192    8.217487    ( 0.0000,  0.0000,  0.0000)
   5 Na     8.761247    5.493769   10.350090    ( 0.0000,  0.0000,  0.0000)
   6 Na    10.204706    8.369613    9.269725    ( 0.0000,  0.0000,  0.0000)

Unit cell:
           periodic     x           y           z      points  spacing
  1. axis:    no    16.000000    0.000000    0.000000    64     0.2500
  2. axis:    no     0.000000   16.000000    0.000000    64     0.2500
  3. axis:    no     0.000000    0.000000   16.000000    64     0.2500

  Lengths:  16.000000  16.000000  16.000000
  Angles:   90.000000  90.000000  90.000000

Effective grid spacing dv^(1/3) = 0.2500

                     log10-error:    total        iterations:
           time      wfs    density  energy       fermi  poisson
iter:   1  23:03:19          +inf    -5.581738    3      1      
iter:   2  23:03:20         -1.56    -5.577922    3      1      
iter:   3  23:03:21         -1.83    -5.576333    3      1      
iter:   4  23:03:22         -2.23    -5.576070    3      1      
iter:   5  23:03:24         -2.87    -5.576058    2      1      
iter:   6  23:03:25         -3.12    -5.576062    2      1      
iter:   7  23:03:26         -3.65    -5.576067    2      1      
iter:   8  23:03:27         -4.04    -5.576068    2      1      

Converged after 8 iterations.

Dipole moment: (-0.004699, 0.012527, 0.002852) |e|*Ang

Energy contributions relative to reference atoms: (reference = -30790.959854)

Kinetic:        +24.455027
Potential:      -21.181862
External:        +0.000000
XC:              -8.843618
Entropy (-ST):   -0.075674
Local:           +0.032222
--------------------------
Free energy:     -5.613905
Extrapolated:    -5.576068

Fermi level: -2.71917

 Band  Eigenvalues  Occupancy
    0     -4.69161    2.00000
    1     -3.47105    2.00000
    2     -2.94080    1.97651
    3     -2.72152    1.02349
    4     -1.73742    0.00000
    5     -1.52014    0.00000
    6     -1.49602    0.00000
    7      1.42391    0.00000
    8      1.45381    0.00000
    9      1.93573    0.00000

Gap: 0.984 eV
Transition (v -> c):
  (s=0, k=0, n=3, [0.00, 0.00, 0.00]) -> (s=0, k=0, n=4, [0.00, 0.00, 0.00])

Forces in eV/Ang:
  0 Na   -0.00492    0.02279    0.04224
  1 Na    0.01500   -0.01353    0.00841
  2 Na    0.02161   -0.01692    0.01470
  3 Na    0.00362   -0.04181   -0.02819
  4 Na   -0.00403    0.04510    0.00473
  5 Na   -0.01915    0.00769   -0.02482
  6 Na   -0.01319   -0.00255   -0.01765

System changes: positions 

Initializing position-dependent things.

Density initialized from wave functions
           .--------------------------------------.  
          /|                                      |  
         / |                                      |  
        /  |                                      |  
       /   |                                      |  
      /    |                                      |  
     /     |                                      |  
    /      |                                      |  
   /       |                                      |  
  /        |                                      |  
 *         |                                      |  
 |         |            Na                        |  
 |         |                                      |  
 |         |               Na  Na                 |  
 |         |       Na     Na                      |  
 |         |                                      |  
 |         |                                      |  
 |         |            Na                        |  
 |         |           Na                         |  
 |         |                                      |  
 |         .--------------------------------------.  
 |        /                                      /   
 |       /                                      /    
 |      /                                      /     
 |     /                                      /      
 |    /                                      /       
 |   /                                      /        
 |  /                                      /         
 | /                                      /          
 |/                                      /           
 *--------------------------------------*            

Positions:
   0 Na     7.244018    8.804745   10.983233    ( 0.0000,  0.0000,  0.0000)
   1 Na     5.119416    8.596349    8.296806    ( 0.0000,  0.0000,  0.0000)
   2 Na     6.755804    8.695537    5.306865    ( 0.0000,  0.0000,  0.0000)
   3 Na     7.831428    6.356367    7.315130    ( 0.0000,  0.0000,  0.0000)
   4 Na     7.869442   10.684724    8.227760    ( 0.0000,  0.0000,  0.0000)
   5 Na     8.738144    5.471336   10.326486    ( 0.0000,  0.0000,  0.0000)
   6 Na    10.194884    8.365298    9.239638    ( 0.0000,  0.0000,  0.0000)

Unit cell:
           periodic     x           y           z      points  spacing
  1. axis:    no    16.000000    0.000000    0.000000    64     0.2500
  2. axis:    no     0.000000   16.000000    0.000000    64     0.2500
  3. axis:    no     0.000000    0.000000   16.000000    64     0.2500

  Lengths:  16.000000  16.000000  16.000000
  Angles:   90.000000  90.000000  90.000000

Effective grid spacing dv^(1/3) = 0.2500

                     log10-error:    total        iterations:
           time      wfs    density  energy       fermi  poisson
iter:   1  23:03:29          +inf    -5.587960    3      1      
iter:   2  23:03:30         -1.81    -5.586995    3      1      
iter:   3  23:03:31         -2.10    -5.586827    3      1      
iter:   4  23:03:32         -2.53    -5.586820    2      1      
iter:   5  23:03:33         -2.94    -5.586819    2      1      
iter:   6  23:03:35         -3.21    -5.586816    2      1      
iter:   7  23:03:36         -3.74    -5.586815    2      1      
iter:   8  23:03:37         -3.98    -5.586815    2      1      
iter:   9  23:03:38         -4.37    -5.586815    2      1      

Converged after 9 iterations.

Dipole moment: (-0.004442, 0.019152, 0.008715) |e|*Ang

Energy contributions relative to reference atoms: (reference = -30790.959854)

Kinetic:        +22.315262
Potential:      -19.537082
External:        +0.000000
XC:              -8.358857
Entropy (-ST):   -0.071857
Local:           +0.029790
--------------------------
Free energy:     -5.622744
Extrapolated:    -5.586815

Fermi level: -2.70384

 Band  Eigenvalues  Occupancy
    0     -4.62360    2.00000
    1     -3.42813    2.00000
    2     -2.98116    1.99223
    3     -2.70461    1.00777
    4     -1.71915    0.00000
    5     -1.57592    0.00000
    6     -1.49296    0.00000
    7      1.53717    0.00000
    8      1.70053    0.00000
    9      1.96004    0.00000

Gap: 0.985 eV
Transition (v -> c):
  (s=0, k=0, n=3, [0.00, 0.00, 0.00]) -> (s=0, k=0, n=4, [0.00, 0.00, 0.00])

Forces in eV/Ang:
  0 Na    0.02304    0.02271   -0.04719
  1 Na    0.07222   -0.00911    0.00798
  2 Na    0.01876    0.00108    0.05267
  3 Na    0.00287   -0.02248   -0.01368
  4 Na   -0.02142   -0.03764    0.03839
  5 Na   -0.02209    0.05151   -0.02513
  6 Na   -0.07369   -0.00575   -0.01554

System changes: positions 

Initializing position-dependent things.

Density initialized from wave functions
           .--------------------------------------.  
          /|                                      |  
         / |                                      |  
        /  |                                      |  
       /   |                                      |  
      /    |                                      |  
     /     |                                      |  
    /      |                                      |  
   /       |                                      |  
  /        |                                      |  
 *         |                                      |  
 |         |            Na                        |  
 |         |                                      |  
 |         |               Na  Na                 |  
 |         |       Na     Na                      |  
 |         |                                      |  
 |         |                                      |  
 |         |            Na                        |  
 |         |           Na                         |  
 |         |                                      |  
 |         .--------------------------------------.  
 |        /                                      /   
 |       /                                      /    
 |      /                                      /     
 |     /                                      /      
 |    /                                      /       
 |   /                                      /        
 |  /                                      /         
 | /                                      /          
 |/                                      /           
 *--------------------------------------*            

Positions:
   0 Na     7.304518    8.889884   11.002315    ( 0.0000,  0.0000,  0.0000)
   1 Na     5.239920    8.600343    8.275662    ( 0.0000,  0.0000,  0.0000)
   2 Na     6.776012    8.653510    5.358417    ( 0.0000,  0.0000,  0.0000)
   3 Na     7.839482    6.260934    7.250390    ( 0.0000,  0.0000,  0.0000)
   4 Na     7.794823   10.727843    8.294890    ( 0.0000,  0.0000,  0.0000)
   5 Na     8.718519    5.505587   10.265175    ( 0.0000,  0.0000,  0.0000)
   6 Na    10.077519    8.334459    9.242264    ( 0.0000,  0.0000,  0.0000)

Unit cell:
           periodic     x           y           z      points  spacing
  1. axis:    no    16.000000    0.000000    0.000000    64     0.2500
  2. axis:    no     0.000000   16.000000    0.000000    64     0.2500
  3. axis:    no     0.000000    0.000000   16.000000    64     0.2500

  Lengths:  16.000000  16.000000  16.000000
  Angles:   90.000000  90.000000  90.000000

Effective grid spacing dv^(1/3) = 0.2500

                     log10-error:    total        iterations:
           time      wfs    density  energy       fermi  poisson
iter:   1  23:03:40          +inf    -5.602221    4      1      
iter:   2  23:03:41         -1.72    -5.601100    3      1      
iter:   3  23:03:42         -1.92    -5.600472    3      1      
iter:   4  23:03:43         -2.44    -5.600444    2      1      
iter:   5  23:03:45         -2.97    -5.600443    2      1      
iter:   6  23:03:46         -3.32    -5.600443    2      1      
iter:   7  23:03:47         -3.66    -5.600443    2      1      
iter:   8  23:03:48         -3.98    -5.600443    2      1      
iter:   9  23:03:49         -4.27    -5.600443    1      1      

Converged after 9 iterations.

Dipole moment: (-0.003394, 0.014562, 0.006206) |e|*Ang

Energy contributions relative to reference atoms: (reference = -30790.959854)

Kinetic:        +24.363671
Potential:      -21.190760
External:        +0.000000
XC:              -8.770713
Entropy (-ST):   -0.069484
Local:           +0.032100
--------------------------
Free energy:     -5.635185
Extrapolated:    -5.600443

Fermi level: -2.63196

 Band  Eigenvalues  Occupancy
    0     -4.64921    2.00000
    1     -3.42976    2.00000
    2     -3.06447    1.99965
    3     -2.63200    1.00035
    4     -1.67362    0.00000
    5     -1.60793    0.00000
    6     -1.46285    0.00000
    7      1.49315    0.00000
    8      1.61309    0.00000
    9      1.88275    0.00000

Gap: 0.958 eV
Transition (v -> c):
  (s=0, k=0, n=3, [0.00, 0.00, 0.00]) -> (s=0, k=0, n=4, [0.00, 0.00, 0.00])

Forces in eV/Ang:
  0 Na   -0.03666   -0.01383    0.01635
  1 Na   -0.00858   -0.06369    0.06325
  2 Na    0.04504    0.04028    0.00374
  3 Na    0.00388   -0.02644   -0.01734
  4 Na    0.03846    0.01368   -0.01745
  5 Na   -0.05069    0.01527    0.02996
  6 Na    0.00646    0.03414   -0.08001

System changes: positions 

Initializing position-dependent things.

Density initialized from wave functions
           .--------------------------------------.  
          /|                                      |  
         / |                                      |  
        /  |                                      |  
       /   |                                      |  
      /    |                                      |  
     /     |                                      |  
    /      |                                      |  
   /       |                                      |  
  /        |                                      |  
 *         |                                      |  
 |         |            Na                        |  
 |         |                                      |  
 |         |               Na  Na                 |  
 |         |       Na     Na                      |  
 |         |                                      |  
 |         |                                      |  
 |         |            Na                        |  
 |         |           Na                         |  
 |         |                                      |  
 |         .--------------------------------------.  
 |        /                                      /   
 |       /                                      /    
 |      /                                      /     
 |     /                                      /      
 |    /                                      /       
 |   /                                      /        
 |  /                                      /         
 | /                                      /          
 |/                                      /           
 *--------------------------------------*            

Positions:
   0 Na     7.293633    8.890974   11.020174    ( 0.0000,  0.0000,  0.0000)
   1 Na     5.237020    8.586952    8.287227    ( 0.0000,  0.0000,  0.0000)
   2 Na     6.786630    8.655630    5.358722    ( 0.0000,  0.0000,  0.0000)
   3 Na     7.840636    6.249191    7.241999    ( 0.0000,  0.0000,  0.0000)
   4 Na     7.803506   10.745122    8.289184    ( 0.0000,  0.0000,  0.0000)
   5 Na     8.708038    5.505862   10.265685    ( 0.0000,  0.0000,  0.0000)
   6 Na    10.081015    8.339278    9.225629    ( 0.0000,  0.0000,  0.0000)

Unit cell:
           periodic     x           y           z      points  spacing
  1. axis:    no    16.000000    0.000000    0.000000    64     0.2500
  2. axis:    no     0.000000   16.000000    0.000000    64     0.2500
  3. axis:    no     0.000000    0.000000   16.000000    64     0.2500

  Lengths:  16.000000  16.000000  16.000000
  Angles:   90.000000  90.000000  90.000000

Effective grid spacing dv^(1/3) = 0.2500

                     log10-error:    total        iterations:
           time      wfs    density  energy       fermi  poisson
iter:   1  23:03:51          +inf    -5.605609    2      1      
iter:   2  23:03:52         -2.59    -5.605582    2      1      
iter:   3  23:03:53         -2.85    -5.605571    2      1      
iter:   4  23:03:54         -3.19    -5.605567    2      1      
iter:   5  23:03:56         -3.75    -5.605567    1      1      
iter:   6  23:03:57         -4.08    -5.605567    1      1      

Converged after 6 iterations.

Dipole moment: (-0.003632, 0.017575, 0.008565) |e|*Ang

Energy contributions relative to reference atoms: (reference = -30790.959854)

Kinetic:        +23.868335
Potential:      -20.803306
External:        +0.000000
XC:              -8.667383
Entropy (-ST):   -0.069521
Local:           +0.031547
--------------------------
Free energy:     -5.640328
Extrapolated:    -5.605567

Fermi level: -2.64269

 Band  Eigenvalues  Occupancy
    0     -4.63922    2.00000
    1     -3.41808    2.00000
    2     -3.06401    1.99956
    3     -2.64274    1.00044
    4     -1.67249    0.00000
    5     -1.61037    0.00000
    6     -1.46342    0.00000
    7      1.51654    0.00000
    8      1.64258    0.00000
    9      1.89698    0.00000

Gap: 0.970 eV
Transition (v -> c):
  (s=0, k=0, n=3, [0.00, 0.00, 0.00]) -> (s=0, k=0, n=4, [0.00, 0.00, 0.00])

Forces in eV/Ang:
  0 Na   -0.02001   -0.00828   -0.00501
  1 Na    0.01053   -0.05481    0.05229
  2 Na    0.03977    0.04083    0.01489
  3 Na    0.00378   -0.02504   -0.01623
  4 Na    0.02338   -0.00547   -0.00528
  5 Na   -0.04690    0.02577    0.02675
  6 Na   -0.01270    0.02633   -0.06839

System changes: positions 

Initializing position-dependent things.

Density initialized from wave functions
           .--------------------------------------.  
          /|                                      |  
         / |                                      |  
        /  |                                      |  
       /   |                                      |  
      /    |                                      |  
     /     |                                      |  
    /      |                                      |  
   /       |                                      |  
  /        |                                      |  
 *         |                                      |  
 |         |            Na                        |  
 |         |                                      |  
 |         |               Na  Na                 |  
 |         |       Na     Na                      |  
 |         |                                      |  
 |         |                                      |  
 |         |            Na                        |  
 |         |           Na                         |  
 |         |                                      |  
 |         .--------------------------------------.  
 |        /                                      /   
 |       /                                      /    
 |      /                                      /     
 |     /                                      /      
 |    /                                      /       
 |   /                                      /        
 |  /                                      /         
 | /                                      /          
 |/                                      /           
 *--------------------------------------*            

Positions:
   0 Na     7.295001    8.929093   11.069332    ( 0.0000,  0.0000,  0.0000)
   1 Na     5.286749    8.544589    8.316082    ( 0.0000,  0.0000,  0.0000)
   2 Na     6.832195    8.652641    5.390082    ( 0.0000,  0.0000,  0.0000)
   3 Na     7.848858    6.169856    7.189164    ( 0.0000,  0.0000,  0.0000)
   4 Na     7.792172   10.802884    8.303621    ( 0.0000,  0.0000,  0.0000)
   5 Na     8.660712    5.532497   10.243640    ( 0.0000,  0.0000,  0.0000)
   6 Na    10.032916    8.341435    9.172449    ( 0.0000,  0.0000,  0.0000)

Unit cell:
           periodic     x           y           z      points  spacing
  1. axis:    no    16.000000    0.000000    0.000000    64     0.2500
  2. axis:    no     0.000000   16.000000    0.000000    64     0.2500
  3. axis:    no     0.000000    0.000000   16.000000    64     0.2500

  Lengths:  16.000000  16.000000  16.000000
  Angles:   90.000000  90.000000  90.000000

Effective grid spacing dv^(1/3) = 0.2500

                     log10-error:    total        iterations:
           time      wfs    density  energy       fermi  poisson
iter:   1  23:03:59          +inf    -5.620449    2      1      
iter:   2  23:04:00         -2.03    -5.620128    1      1      
iter:   3  23:04:01         -2.25    -5.619985    1      1      
iter:   4  23:04:02         -2.71    -5.619979    2      1      
iter:   5  23:04:03         -3.05    -5.619978    2      1      
iter:   6  23:04:04         -3.47    -5.619978    2      1      
iter:   7  23:04:06         -3.83    -5.619978    2      1      
iter:   8  23:04:07         -4.07    -5.619978    2      1      

Converged after 8 iterations.

Dipole moment: (-0.003790, 0.025641, 0.015082) |e|*Ang

Energy contributions relative to reference atoms: (reference = -30790.959854)

Kinetic:        +23.587041
Potential:      -20.594178
External:        +0.000000
XC:              -8.609090
Entropy (-ST):   -0.069430
Local:           +0.030964
--------------------------
Free energy:     -5.654693
Extrapolated:    -5.619978

Fermi level: -2.64557

 Band  Eigenvalues  Occupancy
    0     -4.63339    2.00000
    1     -3.38563    2.00000
    2     -3.09955    1.99977
    3     -2.64559    1.00023
    4     -1.65109    0.00000
    5     -1.62403    0.00000
    6     -1.45640    0.00000
    7      1.56774    0.00000
    8      1.64191    0.00000
    9      1.91113    0.00000

Gap: 0.995 eV
Transition (v -> c):
  (s=0, k=0, n=3, [0.00, 0.00, 0.00]) -> (s=0, k=0, n=4, [0.00, 0.00, 0.00])

Forces in eV/Ang:
  0 Na   -0.00520   -0.00948   -0.01960
  1 Na    0.02210   -0.05874    0.04534
  2 Na    0.03935    0.05532    0.02260
  3 Na    0.00155   -0.02025   -0.01684
  4 Na    0.00994   -0.02178   -0.00277
  5 Na   -0.04975    0.03293    0.04262
  6 Na   -0.02178    0.02247   -0.06958

System changes: positions 

Initializing position-dependent things.

Density initialized from wave functions
           .--------------------------------------.  
          /|                                      |  
         / |                                      |  
        /  |                                      |  
       /   |                                      |  
      /    |                                      |  
     /     |                                      |  
    /      |                                      |  
   /       |                                      |  
  /        |                                      |  
 *         |                                      |  
 |         |            Na                        |  
 |         |                                      |  
 |         |               Na  Na                 |  
 |         |       Na    Na                       |  
 |         |                                      |  
 |         |                                      |  
 |         |            Na                        |  
 |         |           Na                         |  
 |         |                                      |  
 |         .--------------------------------------.  
 |        /                                      /   
 |       /                                      /    
 |      /                                      /     
 |     /                                      /      
 |    /                                      /       
 |   /                                      /        
 |  /                                      /         
 | /                                      /          
 |/                                      /           
 *--------------------------------------*            

Positions:
   0 Na     7.295105    8.945717   11.088391    ( 0.0000,  0.0000,  0.0000)
   1 Na     5.316548    8.511453    8.339822    ( 0.0000,  0.0000,  0.0000)
   2 Na     6.863160    8.662903    5.411300    ( 0.0000,  0.0000,  0.0000)
   3 Na     7.853332    6.126352    7.159710    ( 0.0000,  0.0000,  0.0000)
   4 Na     7.788287   10.825750    8.310468    ( 0.0000,  0.0000,  0.0000)
   5 Na     8.626567    5.553730   10.241197    ( 0.0000,  0.0000,  0.0000)
   6 Na    10.003852    8.347029    9.131747    ( 0.0000,  0.0000,  0.0000)

Unit cell:
           periodic     x           y           z      points  spacing
  1. axis:    no    16.000000    0.000000    0.000000    64     0.2500
[...]

Energy contributions relative to reference atoms: (reference = -30790.959854)

Kinetic:        +25.107507
Potential:      -21.737958
External:        +0.000000
XC:              -9.239184
Entropy (-ST):   -0.069323
Local:           +0.035425
--------------------------
Free energy:     -5.903532
Extrapolated:    -5.868871

Fermi level: -2.61559

 Band  Eigenvalues  Occupancy
    0     -4.80386    2.00000
    1     -3.26239    2.00000
    2     -3.24545    1.99999
    3     -2.61559    1.00001
    4     -1.58913    0.00000
    5     -1.56599    0.00000
    6     -1.52333    0.00000
    7      1.03423    0.00000
    8      1.61570    0.00000
    9      1.64280    0.00000

Gap: 1.026 eV
Transition (v -> c):
  (s=0, k=0, n=3, [0.00, 0.00, 0.00]) -> (s=0, k=0, n=4, [0.00, 0.00, 0.00])

Forces in eV/Ang:
  0 Na    0.00372    0.00309    0.01179
  1 Na   -0.00241    0.01866    0.00894
  2 Na   -0.00336   -0.00136    0.01583
  3 Na    0.01887   -0.00526   -0.02160
  4 Na    0.01804   -0.01480   -0.01568
  5 Na   -0.01858    0.00789   -0.00915
  6 Na   -0.01455   -0.00824    0.01069

System changes: positions 

Initializing position-dependent things.

Density initialized from wave functions
           .--------------------------------------.  
          /|                                      |  
         / |                                      |  
        /  |                                      |  
       /   |                                      |  
      /    |                                      |  
     /     |                                      |  
    /      |                                      |  
   /       |                                      |  
  /        |                                      |  
 *         |                                      |  
 |         |                                      |  
 |         |              Na                      |  
 |         |                  Na                  |  
 |         |                                      |  
 |         |          Na                          |  
 |         |          Na      Na                  |  
 |         |                 Na                   |  
 |         |                                      |  
 |         |                                      |  
 |         .-------------Na-----------------------.  
 |        /                                      /   
 |       /                                      /    
 |      /                                      /     
 |     /                                      /      
 |    /                                      /       
 |   /                                      /        
 |  /                                      /         
 | /                                      /          
 |/                                      /           
 *--------------------------------------*            

Positions:
   0 Na     6.459243    9.078089    7.197998    ( 0.0000,  0.0000,  0.0000)
   1 Na     9.999781    7.705902    7.560178    ( 0.0000,  0.0000,  0.0000)
   2 Na     9.105806   10.003302    5.145064    ( 0.0000,  0.0000,  0.0000)
   3 Na     7.072124    5.859091    8.161439    ( 0.0000,  0.0000,  0.0000)
   4 Na     9.011364   10.991795    8.393661    ( 0.0000,  0.0000,  0.0000)
   5 Na     7.957654    8.355380   10.244019    ( 0.0000,  0.0000,  0.0000)
   6 Na     7.923810    6.820680    4.981871    ( 0.0000,  0.0000,  0.0000)

Unit cell:
           periodic     x           y           z      points  spacing
  1. axis:    no    16.000000    0.000000    0.000000    64     0.2500
  2. axis:    no     0.000000   16.000000    0.000000    64     0.2500
  3. axis:    no     0.000000    0.000000   16.000000    64     0.2500

  Lengths:  16.000000  16.000000  16.000000
  Angles:   90.000000  90.000000  90.000000

Effective grid spacing dv^(1/3) = 0.2500

                     log10-error:    total        iterations:
           time      wfs    density  energy       fermi  poisson
iter:   1  23:21:17          +inf    -5.870662    2      1      
iter:   2  23:21:18         -2.41    -5.870600    2      1      
iter:   3  23:21:19         -2.68    -5.870581    2      1      
iter:   4  23:21:20         -3.05    -5.870578    2      1      
iter:   5  23:21:21         -3.51    -5.870578    1      1      
iter:   6  23:21:23         -3.75    -5.870578    1      1      
iter:   7  23:21:24         -4.21    -5.870578    1      1      

Converged after 7 iterations.

Dipole moment: (-0.001720, 0.000169, -0.005827) |e|*Ang

Energy contributions relative to reference atoms: (reference = -30790.959854)

Kinetic:        +25.227778
Potential:      -21.830271
External:        +0.000000
XC:              -9.268990
Entropy (-ST):   -0.069321
Local:           +0.035566
--------------------------
Free energy:     -5.905239
Extrapolated:    -5.870578

Fermi level: -2.60772

 Band  Eigenvalues  Occupancy
    0     -4.80698    2.00000
    1     -3.26168    2.00000
    2     -3.25023    1.99999
    3     -2.60772    1.00001
    4     -1.58753    0.00000
    5     -1.56937    0.00000
    6     -1.52442    0.00000
    7      1.02567    0.00000
    8      1.60885    0.00000
    9      1.63305    0.00000

Gap: 1.020 eV
Transition (v -> c):
  (s=0, k=0, n=3, [0.00, 0.00, 0.00]) -> (s=0, k=0, n=4, [0.00, 0.00, 0.00])

Forces in eV/Ang:
  0 Na   -0.01082    0.00032   -0.01493
  1 Na   -0.00426    0.00946    0.00931
  2 Na   -0.00773   -0.00780    0.00841
  3 Na    0.01904   -0.00344   -0.02176
  4 Na    0.01806   -0.01208   -0.00289
  5 Na   -0.00320    0.00964    0.00731
  6 Na   -0.01068    0.00311    0.01576

System changes: positions 

Initializing position-dependent things.

Density initialized from wave functions
           .--------------------------------------.  
          /|                                      |  
         / |                                      |  
        /  |                                      |  
       /   |                                      |  
      /    |                                      |  
     /     |                                      |  
    /      |                                      |  
   /       |                                      |  
  /        |                                      |  
 *         |                                      |  
 |         |                                      |  
 |         |              Na                      |  
 |         |                  Na                  |  
 |         |                                      |  
 |         |          Na                          |  
 |         |          Na      Na                  |  
 |         |                 Na                   |  
 |         |                                      |  
 |         |                                      |  
 |         .-------------Na-----------------------.  
 |        /                                      /   
 |       /                                      /    
 |      /                                      /     
 |     /                                      /      
 |    /                                      /       
 |   /                                      /        
 |  /                                      /         
 | /                                      /          
 |/                                      /           
 *--------------------------------------*            

Positions:
   0 Na     6.461682    9.079923    7.208317    ( 0.0000,  0.0000,  0.0000)
   1 Na    10.000017    7.715679    7.563687    ( 0.0000,  0.0000,  0.0000)
   2 Na     9.103463   10.000755    5.150470    ( 0.0000,  0.0000,  0.0000)
   3 Na     7.085006    5.852505    8.149821    ( 0.0000,  0.0000,  0.0000)
   4 Na     9.024623   10.986585    8.385984    ( 0.0000,  0.0000,  0.0000)
   5 Na     7.940567    8.360338   10.239343    ( 0.0000,  0.0000,  0.0000)
   6 Na     7.915249    6.818092    4.987320    ( 0.0000,  0.0000,  0.0000)

Unit cell:
           periodic     x           y           z      points  spacing
  1. axis:    no    16.000000    0.000000    0.000000    64     0.2500
  2. axis:    no     0.000000   16.000000    0.000000    64     0.2500
  3. axis:    no     0.000000    0.000000   16.000000    64     0.2500

  Lengths:  16.000000  16.000000  16.000000
  Angles:   90.000000  90.000000  90.000000

Effective grid spacing dv^(1/3) = 0.2500

                     log10-error:    total        iterations:
           time      wfs    density  energy       fermi  poisson
iter:   1  23:21:26          +inf    -5.871391    2      1      
iter:   2  23:21:27         -2.78    -5.871379    2      1      
iter:   3  23:21:28         -2.97    -5.871373    2      1      
iter:   4  23:21:29         -3.43    -5.871373    2      1      
iter:   5  23:21:30         -3.77    -5.871373    1      1      
iter:   6  23:21:31         -4.11    -5.871373    1      1      

Converged after 6 iterations.

Dipole moment: (-0.001882, 0.001375, -0.003493) |e|*Ang

Energy contributions relative to reference atoms: (reference = -30790.959854)

Kinetic:        +25.409479
Potential:      -21.972654
External:        +0.000000
XC:              -9.309221
Entropy (-ST):   -0.069321
Local:           +0.035683
--------------------------
Free energy:     -5.906033
Extrapolated:    -5.871373

Fermi level: -2.60667

 Band  Eigenvalues  Occupancy
    0     -4.81084    2.00000
    1     -3.26177    2.00000
    2     -3.25240    2.00000
    3     -2.60667    1.00001
    4     -1.58255    0.00000
    5     -1.57178    0.00000
    6     -1.52223    0.00000
    7      1.01711    0.00000
    8      1.60574    0.00000
    9      1.62040    0.00000

Gap: 1.024 eV
Transition (v -> c):
  (s=0, k=0, n=3, [0.00, 0.00, 0.00]) -> (s=0, k=0, n=4, [0.00, 0.00, 0.00])

Forces in eV/Ang:
  0 Na   -0.01619   -0.00009   -0.02093
  1 Na   -0.00178    0.00213    0.00883
  2 Na   -0.00793   -0.00788   -0.00129
  3 Na    0.01650   -0.00274   -0.01228
  4 Na    0.01598   -0.00677    0.00563
  5 Na    0.00004    0.00691    0.01199
  6 Na   -0.00693    0.00736    0.00967

System changes: positions 

Initializing position-dependent things.

Density initialized from wave functions
           .--------------------------------------.  
          /|                                      |  
         / |                                      |  
        /  |                                      |  
       /   |                                      |  
      /    |                                      |  
     /     |                                      |  
    /      |                                      |  
   /       |                                      |  
  /        |                                      |  
 *         |                                      |  
 |         |                                      |  
 |         |              Na                      |  
 |         |                  Na                  |  
 |         |                                      |  
 |         |          Na                          |  
 |         |          Na      Na                  |  
 |         |                 Na                   |  
 |         |                                      |  
 |         |             Na                       |  
 |         .--------------------------------------.  
 |        /                                      /   
 |       /                                      /    
 |      /                                      /     
 |     /                                      /      
 |    /                                      /       
 |   /                                      /        
 |  /                                      /         
 | /                                      /          
 |/                                      /           
 *--------------------------------------*            

Positions:
   0 Na     6.452009    9.081395    7.198405    ( 0.0000,  0.0000,  0.0000)
   1 Na     9.996413    7.728947    7.574935    ( 0.0000,  0.0000,  0.0000)
   2 Na     9.095423    9.993334    5.160606    ( 0.0000,  0.0000,  0.0000)
   3 Na     7.108234    5.847574    8.125569    ( 0.0000,  0.0000,  0.0000)
   4 Na     9.046855   10.972189    8.380053    ( 0.0000,  0.0000,  0.0000)
   5 Na     7.931148    8.370797   10.243790    ( 0.0000,  0.0000,  0.0000)
   6 Na     7.901455    6.818879    5.003146    ( 0.0000,  0.0000,  0.0000)

Unit cell:
           periodic     x           y           z      points  spacing
  1. axis:    no    16.000000    0.000000    0.000000    64     0.2500
  2. axis:    no     0.000000   16.000000    0.000000    64     0.2500
  3. axis:    no     0.000000    0.000000   16.000000    64     0.2500

  Lengths:  16.000000  16.000000  16.000000
  Angles:   90.000000  90.000000  90.000000

Effective grid spacing dv^(1/3) = 0.2500

                     log10-error:    total        iterations:
           time      wfs    density  energy       fermi  poisson
iter:   1  23:21:33          +inf    -5.872493    2      1      
iter:   2  23:21:34         -2.40    -5.872400    2      1      
iter:   3  23:21:36         -2.71    -5.872384    2      1      
iter:   4  23:21:37         -2.98    -5.872379    2      1      
iter:   5  23:21:38         -3.53    -5.872379    1      1      
iter:   6  23:21:39         -3.74    -5.872379    1      1      
iter:   7  23:21:40         -4.32    -5.872379    1      1      

Converged after 7 iterations.

Dipole moment: (-0.000684, 0.002076, -0.000407) |e|*Ang

Energy contributions relative to reference atoms: (reference = -30790.959854)

Kinetic:        +25.717572
Potential:      -22.216112
External:        +0.000000
XC:              -9.375083
Entropy (-ST):   -0.069322
Local:           +0.035904
--------------------------
Free energy:     -5.907040
Extrapolated:    -5.872379

Fermi level: -2.61122

 Band  Eigenvalues  Occupancy
    0     -4.81695    2.00000
    1     -3.26503    2.00000
    2     -3.25066    1.99999
    3     -2.61122    1.00001
    4     -1.57504    0.00000
    5     -1.57014    0.00000
    6     -1.51780    0.00000
    7      1.00451    0.00000
    8      1.59331    0.00000
    9      1.61023    0.00000

Gap: 1.036 eV
Transition (v -> c):
  (s=0, k=0, n=3, [0.00, 0.00, 0.00]) -> (s=0, k=0, n=4, [0.00, 0.00, 0.00])

Forces in eV/Ang:
  0 Na   -0.01298    0.00108   -0.00827
  1 Na    0.00529   -0.00811    0.00731
  2 Na   -0.00404   -0.00078   -0.01716
  3 Na    0.00926   -0.00201    0.01357
  4 Na    0.00885    0.00250    0.01326
  5 Na   -0.00516   -0.00120    0.00461
  6 Na   -0.00051    0.00718   -0.01233

Timing:                                       incl.     excl.
--------------------------------------------------------------------
Basic WFS set positions:                      0.091     0.048   0.0% |
 Redistribute:                                0.043     0.043   0.0% |
Basis functions set positions:                4.380     4.380   0.4% |
Forces:                                      61.716    12.239   1.0% |
 LCAO forces:                                49.476     0.051   0.0% |
  Atomic Hamiltonian force:                   0.216     0.216   0.0% |
  Initial:                                    0.013     0.001   0.0% |
   Get density matrix:                        0.012     0.012   0.0% |
  Paw correction:                             0.186     0.186   0.0% |
  Potential:                                 44.798    44.798   3.7% ||
  TCI derivative:                             4.212     4.212   0.3% |
  Wait for sum:                               0.001     0.001   0.0% |
LCAO WFS Initialize:                        132.296     0.069   0.0% |
 Density initialized from wave functions:    16.637     8.951   0.7% |
  Calculate density matrix:                   0.010     0.010   0.0% |
  Construct density:                          7.673     7.673   0.6% |
  Symmetrize density:                         0.003     0.003   0.0% |
 Hamiltonian:                               115.590     0.015   0.0% |
  Atomic:                                    15.909     0.151   0.0% |
   XC Correction:                            15.758    15.758   1.3% ||
  Calculate atomic Hamiltonians:              0.717     0.717   0.1% |
  Communicate:                                0.001     0.001   0.0% |
  Hartree integrate/restrict:                 4.232     4.232   0.3% |
  Initialize Hamiltonian:                     0.000     0.000   0.0% |
  Poisson:                                   34.551     2.341   0.2% |
   Communicate bwd 0:                         3.993     3.993   0.3% |
   Communicate bwd 1:                         2.388     2.388   0.2% |
   Communicate fwd 0:                         4.724     4.724   0.4% |
   Communicate fwd 1:                         4.866     4.866   0.4% |
   fft:                                       4.579     4.579   0.4% |
   fft2:                                     11.659    11.659   1.0% |
  XC 3D grid:                                59.456    59.456   4.9% |-|
  vbar:                                       0.709     0.709   0.1% |
P tci:                                        1.922     1.922   0.2% |
Redistribute:                                 0.023     0.023   0.0% |
SCF-cycle:                                 1000.987     0.684   0.1% |
 Density:                                   115.472     0.022   0.0% |
  Atomic density matrices:                    0.925     0.925   0.1% |
  Mix:                                       58.184    58.184   4.8% |-|
  Multipole moments:                          0.228     0.228   0.0% |
  Normalize:                                  0.272     0.272   0.0% |
  Pseudo density:                            55.841     0.706   0.1% |
   Calculate density matrix:                  0.044     0.044   0.0% |
   Construct density:                        55.064    55.064   4.5% |-|
   Symmetrize density:                        0.027     0.027   0.0% |
 Hamiltonian:                               807.744     0.104   0.0% |
  Atomic:                                   111.114     1.042   0.1% |
   XC Correction:                           110.072   110.072   9.0% |---|
  Calculate atomic Hamiltonians:              5.022     5.022   0.4% |
  Communicate:                                0.008     0.008   0.0% |
  Hartree integrate/restrict:                38.819    38.819   3.2% ||
  Poisson:                                  237.111    16.371   1.3% ||
   Communicate bwd 0:                        27.883    27.883   2.3% ||
   Communicate bwd 1:                        16.645    16.645   1.4% ||
   Communicate fwd 0:                        29.369    29.369   2.4% ||
   Communicate fwd 1:                        33.943    33.943   2.8% ||
   fft:                                      31.836    31.836   2.6% ||
   fft2:                                     81.063    81.063   6.6% |--|
  XC 3D grid:                               410.843   410.843  33.6% |------------|
  vbar:                                       4.723     4.723   0.4% |
 LCAO eigensolver:                           77.088     0.093   0.0% |
  Calculate projections:                      0.062     0.062   0.0% |
  DenseAtomicCorrection:                      0.332     0.332   0.0% |
  Distribute overlap matrix:                  0.011     0.011   0.0% |
  Orbital Layouts:                            0.725     0.725   0.1% |
  Potential matrix:                          75.865    75.865   6.2% |-|
ST tci:                                       0.587     0.587   0.0% |
Set symmetry:                                 0.001     0.001   0.0% |
TCI: Evaluate splines:                        0.025     0.025   0.0% |
mktci:                                        0.349     0.349   0.0% |
Other:                                       21.315    21.315   1.7% ||
--------------------------------------------------------------------
Total:                                               1223.692 100.0%

Date: Wed Jan 29 23:21:41 2020
