LAMMPS (7 Aug 2019)
OMP_NUM_THREADS environment is not set. Defaulting to 1 thread. (../comm.cpp:93)
  using 1 OpenMP thread(s) per MPI task
Reading data file ...
  triclinic box = (0 0 0) to (189.912 158.26 158.26) with tilt (0 0 0)
  2 by 2 by 2 MPI processor grid
  reading atoms ...
  300000 atoms
  read_data CPU = 0.249571 secs
Neighbor list info ...
  update every 1 steps, delay 0 steps, check yes
  max neighbors/atom: 2000, page size: 100000
  master list distance cutoff = 6.6
  ghost atom cutoff = 6.6
  1 neighbor lists, perpetual/occasional/extra = 1 0 0
  (1) pair eam/fs, perpetual
      attributes: half, newton on
      pair build: half/nsq/newton
      stencil: none
      bin: none
Setting up cg style minimization ...
  Unit style    : metal
  Current step  : 0
WARNING: Energy due to 3 extra global DOFs will be included in minimizer energies
Per MPI rank memory allocation (min/avg/max) = 21.21 | 21.21 | 21.21 Mbytes
Step Temp PotEng Press Pxx Pyy Pzz Pxy Pxz Pyz Lx Ly Lz Volume 
       0            0   -2669999.8  -0.43338899  -0.43338899  -0.43338899  -0.43338899 4.5208618e-09 4.9644162e-09 1.2860511e-09      189.912       158.26       158.26    4756579.2 
       1            0   -2669999.8 -0.00019948367 -0.00019948246 -0.0001994864 -0.00019948216 1.7488674e-09 3.2774319e-09 -2.7830428e-09    189.91199    158.25999    158.25999    4756578.5 
       2            0   -2669999.8 -8.898313e-08 -9.3907479e-08 -8.9602362e-08 -8.3439548e-08 -2.2749445e-09 -2.0502378e-10 -1.0251764e-09    189.91199    158.25999    158.25999    4756578.5 
       3            0   -2669999.8 6.5638756e-09 1.9638169e-08 -2.5947724e-09 2.6482302e-09 6.0810192e-10 9.3308031e-10 -7.0787582e-10    189.91199    158.25999    158.25999    4756578.5 
       4            0   -2669999.8 1.4592404e-10 -1.0242458e-08 7.8719329e-09 2.8082974e-09 2.4852528e-10 4.758857e-09 4.1441303e-10    189.91199    158.25999    158.25999    4756578.5 
       5            0   -2669999.8 -1.3158182e-08 -4.2915759e-08 8.3391145e-09 -4.897901e-09 -3.8492698e-10 5.5757355e-10 3.0579332e-10    189.91199    158.25999    158.25999    4756578.5 
       6            0   -2669999.8 1.0202429e-08 4.2514442e-08 -1.2712547e-08 8.053904e-10 1.9098536e-09 -3.9174707e-09 -8.2285227e-10    189.91199    158.25999    158.25999    4756578.5 
       7            0   -2669999.8 -8.9202577e-09 -8.436227e-09 -1.0471607e-08 -7.8529393e-09 -3.879292e-09 3.3483708e-09 2.360454e-09    189.91199    158.25999    158.25999    4756578.5 
       8            0   -2669999.8 -2.075001e-09 -5.1785163e-09 -3.7968842e-09 2.7503975e-09 -1.9564186e-09 4.3058441e-09 -1.6141123e-09    189.91199    158.25999    158.25999    4756578.5 
       9            0   -2669999.8 -6.3130782e-09 -1.8300651e-08 4.5979857e-09 -5.2365693e-09 -6.0917414e-10 4.2311333e-09 1.4528581e-10    189.91199    158.25999    158.25999    4756578.5 
      10            0   -2669999.8 5.3371027e-09 -5.1405291e-09 1.2779024e-08 8.3728128e-09 -2.0954242e-10 2.3002374e-09 -1.6834811e-09    189.91199    158.25999    158.25999    4756578.5 
      11            0   -2669999.8 1.3067707e-08 2.6133984e-08 1.2842439e-08 2.2669794e-10 -1.1475818e-09 3.9750642e-10 -2.1543963e-09    189.91199    158.25999    158.25999    4756578.5 
      12            0   -2669999.8 -1.4995814e-08 -2.3347437e-08 -6.1128794e-09 -1.5527124e-08 7.5070718e-10 -1.1362469e-09 -1.7440999e-09    189.91199    158.25999    158.25999    4756578.5 
      13            0   -2669999.8 1.3251005e-08 1.6406804e-08 8.7634073e-09 1.4582805e-08 -4.1655747e-09 9.8816561e-10 -2.3603392e-09    189.91199    158.25999    158.25999    4756578.5 
      14            0   -2669999.8 -4.0157192e-09 7.8952154e-09 -1.9201929e-09 -1.802218e-08 -2.6133831e-09 -6.9596652e-10 -3.1920947e-09    189.91199    158.25999    158.25999    4756578.5 
      15            0   -2669999.8 -2.2263883e-09 1.6406191e-08 -8.4539952e-09 -1.4631361e-08 5.6957858e-10 3.8319228e-09 -9.3484182e-10    189.91199    158.25999    158.25999    4756578.5 
      16            0   -2669999.8 -1.0211262e-08 -1.6251179e-08 -8.8029262e-09 -5.5796797e-09 -6.7986407e-10 -3.6744405e-09 -2.1673013e-09    189.91199    158.25999    158.25999    4756578.5 
      17            0   -2669999.8 1.286664e-09 6.1147175e-09 -2.4348585e-09 1.8013296e-10 1.4294224e-09 -1.1173873e-09 -4.6830932e-09    189.91199    158.25999    158.25999    4756578.5 
      18            0   -2669999.8 -6.3912992e-09 -1.4496414e-08 -3.5343435e-09 -1.1431397e-09 -3.0742079e-10 5.1585462e-09 -3.5782854e-09    189.91199    158.25999    158.25999    4756578.5 
      19            0   -2669999.8 -7.9419846e-09 -3.9548375e-08 3.6164449e-09 1.2105977e-08 -9.1866278e-10 2.1863715e-10 -1.7046383e-10    189.91199    158.25999    158.25999    4756578.5 
      20            0   -2669999.8 2.1144893e-08 1.640129e-08 2.3260434e-08 2.3772956e-08 -5.796115e-10 -4.2718394e-10 -1.0154115e-09    189.91199    158.25999    158.25999    4756578.5 
      21            0   -2669999.8 2.8840165e-09 1.7608916e-08 -5.0722133e-09 -3.8846531e-09 7.3929569e-10 5.0453695e-10 -1.3719821e-09    189.91199    158.25999    158.25999    4756578.5 
      22            0   -2669999.8 -1.0342124e-08 -1.7871763e-08 -8.9787703e-09 -4.1758374e-09 -1.1261374e-09 -2.361105e-09 -2.1275908e-10    189.91199    158.25999    158.25999    4756578.5 
      23            0   -2669999.8 -1.9741613e-09 -1.4579129e-08 4.3768021e-09 4.2798427e-09 -1.4622783e-09 1.3108272e-09 -2.4955921e-10    189.91199    158.25999    158.25999    4756578.5 
      24            0   -2669999.8 1.0864652e-08 2.0630126e-08 8.5422236e-09 3.4216072e-09 2.7287999e-10 3.1143204e-09 1.7241681e-09    189.91199    158.25999    158.25999    4756578.5 
      25            0   -2669999.8 1.5888769e-09 1.3506296e-08 -3.3094836e-09 -5.4301816e-09 -2.2531938e-09 8.1860168e-10 -1.286798e-09    189.91199    158.25999    158.25999    4756578.5 
      26            0   -2669999.8 -6.3462149e-09 -1.1609386e-08 -7.5870288e-09 1.5776951e-10 1.283141e-09 2.6559081e-09 -6.8549323e-10    189.91199    158.25999    158.25999    4756578.5 
      27            0   -2669999.8 -9.5820728e-09 -3.839099e-08 9.3522092e-09 2.9256289e-10 2.0676997e-09 2.583897e-09 -4.6693267e-10    189.91199    158.25999    158.25999    4756578.5 
      28            0   -2669999.8 1.1290681e-08 -4.0211314e-09 2.4011601e-08 1.3881573e-08 2.1507967e-09 2.6771419e-09 -1.8446013e-10    189.91199    158.25999    158.25999    4756578.5 
      29            0   -2669999.8 2.5622586e-08 3.7671684e-08 2.3007084e-08 1.618899e-08 3.5664335e-09 -9.8784012e-10 -6.6973542e-10    189.91199    158.25999    158.25999    4756578.5 
      30            0   -2669999.8 2.2354051e-08 4.9672583e-08 1.2758499e-08 4.6310714e-09 -1.4704731e-11 -3.0450857e-09 -1.6550099e-09    189.91199    158.25999    158.25999    4756578.5 
      31            0   -2669999.8 -1.1787221e-08 1.6003649e-09 -1.1995997e-08 -2.496603e-08 9.5197819e-11 3.4501551e-09 1.1660584e-09    189.91199    158.25999    158.25999    4756578.5 
      32            0   -2669999.8 -1.3100078e-08 -2.3156889e-08 -8.9655973e-09 -7.1777471e-09 -2.3124722e-09 -1.1972102e-09 -1.9626413e-09    189.91199    158.25999    158.25999    4756578.5 
      33            0   -2669999.8 1.2495958e-09 -6.2115237e-09 2.7029135e-09 7.2573977e-09 -5.8129642e-10 2.1278015e-09 -3.8324206e-10    189.91199    158.25999    158.25999    4756578.5 
      34            0   -2669999.8 -4.3879327e-10 9.4722979e-10 1.0474058e-09 -3.3110154e-09 7.9359598e-10 -1.2068219e-09 7.3538975e-10    189.91199    158.25999    158.25999    4756578.5 
      35            0   -2669999.8 4.5994154e-09 1.5397079e-08 -7.1379217e-11 -1.527454e-09 -5.0348388e-10 -4.3555108e-10 -9.1885425e-11    189.91199    158.25999    158.25999    4756578.5 
      36            0   -2669999.8 -6.3441215e-09 -9.8472685e-09 -6.6768671e-09 -2.5082289e-09 6.1315667e-10 -2.0935096e-10 -2.9985973e-09    189.91199    158.25999    158.25999    4756578.5 
      37            0   -2669999.8 1.0206411e-08 1.5839447e-08 7.0294744e-09 7.7503125e-09  3.30014e-10 3.629637e-09 3.2472949e-10    189.91199    158.25999    158.25999    4756578.5 
      38            0   -2669999.8 4.1890614e-09 2.5166535e-08 -1.3419906e-08 8.2055465e-10 -1.472541e-09 8.1609345e-10 -1.2302384e-09    189.91199    158.25999    158.25999    4756578.5 
      39            0   -2669999.8 -2.1705715e-08 -2.160799e-08 -1.961121e-08 -2.3897946e-08 -8.57776e-11 2.3003523e-09 -1.2542868e-09    189.91199    158.25999    158.25999    4756578.5 
      40            0   -2669999.8 -9.0362617e-10 -3.269352e-09 -1.6910441e-10 7.2757786e-10 -1.0254253e-09 4.5226048e-09 6.8281268e-10    189.91199    158.25999    158.25999    4756578.5 
      41            0   -2669999.8 3.1543181e-09 -2.5647503e-09 9.1491001e-09 2.8786044e-09 4.0622587e-09 1.2482556e-09 -1.3020963e-09    189.91199    158.25999    158.25999    4756578.5 
      42            0   -2669999.8 1.9097208e-08 4.5800337e-08 6.9507428e-09 4.5405454e-09 1.5877281e-09 2.3110936e-09 -7.9210253e-11    189.91199    158.25999    158.25999    4756578.5 
      43            0   -2669999.8 -2.2145121e-08 -3.8184512e-08 -1.1935953e-08 -1.63149e-08 -1.3785686e-12 -1.0053977e-09 -2.6346743e-09    189.91199    158.25999    158.25999    4756578.5 
      44            0   -2669999.8 1.7224449e-09 -1.1388202e-08 6.2130554e-09 1.0342481e-08 1.9888915e-09 -1.1648713e-09 -2.5284671e-09    189.91199    158.25999    158.25999    4756578.5 
      45            0   -2669999.8 -1.685632e-09 1.8338026e-09 -6.6912655e-09 -1.9943292e-10 -1.0444189e-09 1.1835586e-09 1.7509736e-10    189.91199    158.25999    158.25999    4756578.5 
      46            0   -2669999.8 3.9491395e-09 1.201928e-08 7.6305303e-09 -7.8023918e-09 -6.0802533e-10 2.3378225e-11 1.5173828e-10    189.91199    158.25999    158.25999    4756578.5 
      47            0   -2669999.8 -2.2483432e-09 1.1394329e-08 -1.294047e-08 -5.1988885e-09 4.2988363e-10 3.365354e-09 -1.088399e-09    189.91199    158.25999    158.25999    4756578.5 
      48            0   -2669999.8 -3.1246023e-09 -6.024651e-09 -8.5088316e-09 5.1596758e-09 -1.5547956e-09 8.0741996e-11 2.1532475e-10    189.91199    158.25999    158.25999    4756578.5 
      49            0   -2669999.8 9.1588012e-10 -2.1064528e-09 -5.7124818e-09 1.0566575e-08 -1.1964444e-09 1.1322643e-09 4.944466e-10    189.91199    158.25999    158.25999    4756578.5 
      50            0   -2669999.8 -5.2746587e-09 -2.360477e-08 1.0758349e-08 -2.977555e-09 -2.8995892e-09 3.1603685e-09 -3.1682186e-10    189.91199    158.25999    158.25999    4756578.5 
      51            0   -2669999.8 -6.3654638e-09 -2.7940215e-08 1.7060246e-08 -8.2164219e-09 -6.8882477e-10 7.636887e-09 1.981252e-09    189.91199    158.25999    158.25999    4756578.5 
      52            0   -2669999.8 1.4521433e-08 2.4961282e-08 1.770419e-08 8.9882671e-10 -4.3519112e-09 1.6576138e-09 1.5961718e-09    189.91199    158.25999    158.25999    4756578.5 
      53            0   -2669999.8 -6.2866812e-09 2.0298656e-09 -4.796806e-09 -1.6093103e-08 9.9410112e-10 8.9809913e-10 3.1042684e-10    189.91199    158.25999    158.25999    4756578.5 
      54            0   -2669999.8 -5.5225457e-09 -1.1195202e-08 -7.0980964e-09 1.7256615e-09 -1.3097933e-09 8.7004909e-10 3.0552526e-10    189.91199    158.25999    158.25999    4756578.5 
      55            0   -2669999.8 -7.0112466e-09 -1.2733072e-08 -4.1234518e-09 -4.177216e-09 1.7818765e-09 1.310789e-10 1.7203387e-09    189.91199    158.25999    158.25999    4756578.5 
      56            0   -2669999.8 2.1418871e-09 -1.159223e-09 7.6219525e-10 6.8226891e-09 5.9653726e-10 5.7525178e-09 1.5100113e-09    189.91199    158.25999    158.25999    4756578.5 
      57            0   -2669999.8 9.4360977e-09 2.224397e-08 1.1172532e-09 4.9470699e-09 -1.7023024e-09 1.7086209e-09 -1.9047605e-09    189.91199    158.25999    158.25999    4756578.5 
      58            0   -2669999.8 -4.8331593e-10 1.2367905e-08 -8.0235755e-09 -5.7942769e-09 -5.4346237e-10 -4.17174e-09 5.396713e-10    189.91199    158.25999    158.25999    4756578.5 
      59            0   -2669999.8 -8.4947396e-09 -2.5782909e-08 5.0826292e-09 -4.7839393e-09 -2.398403e-09 4.2299079e-09 -6.8738876e-10    189.91199    158.25999    158.25999    4756578.5 
      60            0   -2669999.8 2.2822969e-11 -2.8434662e-08 8.2352623e-09 2.0267868e-08 5.0348388e-10 1.0068337e-09 -1.2629411e-09    189.91199    158.25999    158.25999    4756578.5 
      61            0   -2669999.8 2.3267123e-08 4.0169038e-08 1.2051753e-08 1.7580579e-08 5.3212747e-10 -2.1951598e-09 1.0453379e-09    189.91199    158.25999    158.25999    4756578.5 
      62            0   -2669999.8 -1.1218485e-09 1.8675009e-08 -1.2336351e-08 -9.7042037e-09 7.8425235e-10 -2.2057097e-11 -8.0745825e-10    189.91199    158.25999    158.25999    4756578.5 
      63            0   -2669999.8 -1.0215193e-08 -3.3753486e-08 -3.103311e-09 6.2112173e-09 1.2041031e-09 2.8149413e-09 -9.3011256e-10    189.91199    158.25999    158.25999    4756578.5 
      64            0   -2669999.8 1.3909246e-08 1.7474123e-08 1.5552704e-08 8.7009122e-09 2.7932863e-09 4.0373678e-09 -1.0668589e-09    189.91199    158.25999    158.25999    4756578.5 
      65            0   -2669999.8 3.1479869e-09 -1.3218328e-08 1.6688339e-08 5.9739503e-09 3.0595798e-09 1.6511422e-09 3.7878086e-10    189.91199    158.25999    158.25999    4756578.5 
      66            0   -2669999.8 1.4387661e-09 1.8220388e-08 -1.1537087e-09 -1.2750381e-08 2.0804897e-09 -9.3901582e-10 -1.1562935e-09    189.91199    158.25999    158.25999    4756578.5 
      67            0   -2669999.8 -5.1340447e-09 -6.6759481e-09 -8.1632704e-09 -5.629155e-10 2.8072251e-09 2.5051272e-09 5.5638645e-10    189.91199    158.25999    158.25999    4756578.5 
      68            0   -2669999.8 4.8825325e-09 9.9924777e-09 -4.1188566e-09 8.7739763e-09 1.3793344e-10 8.3797823e-10 -2.5504093e-09    189.91199    158.25999    158.25999    4756578.5 
      69            0   -2669999.8 4.4284218e-09 2.5990613e-09 6.5105199e-09 4.1756842e-09 -4.777506e-10 2.925782e-09 -3.2263483e-09    189.91199    158.25999    158.25999    4756578.5 
      70            0   -2669999.8 -8.4899401e-10 -6.902646e-09 8.1139483e-09 -3.7582843e-09 -5.2255408e-10 -2.1431955e-09 -4.1968414e-09    189.91199    158.25999    158.25999    4756578.5 
      71            0   -2669999.8 -5.7923367e-09 -1.7209437e-08 1.2284578e-10 -2.9041845e-10 -1.8213189e-09 3.1645999e-09 -1.2216032e-09    189.91199    158.25999    158.25999    4756578.5 
      72            0   -2669999.8 1.3142354e-10 1.4474357e-08 -9.9266128e-09 -4.1534739e-09 1.2823751e-09 -1.2413436e-09 -3.6616505e-09    189.91199    158.25999    158.25999    4756578.5 
      73            0   -2669999.8 -6.1676137e-09 -1.9747229e-08 -3.336136e-10 1.5780015e-09 -3.3988608e-09 -9.9611153e-10 8.148872e-11    189.91199    158.25999    158.25999    4756578.5 
      74            0   -2669999.8 9.1385311e-09 1.1198878e-08 1.1136077e-08 5.0806379e-09 -6.5780697e-10 1.0293312e-09 8.9195302e-10    189.91199    158.25999    158.25999    4756578.5 
      75            0   -2669999.8 3.3718766e-10 -5.2214051e-09 -1.3632511e-10 6.3692932e-09 -1.6507593e-09 1.8554767e-09 1.0830762e-09    189.91199    158.25999    158.25999    4756578.5 
      76            0   -2669999.8 1.0382868e-08 2.8826175e-08 8.262221e-10 1.4962064e-09 1.2463792e-09 8.3797823e-10 -1.4759108e-09    189.91199    158.25999    158.25999    4756578.5 
      77            0   -2669999.8 -5.5244859e-09 -2.6701342e-09 -8.8301913e-09 -5.0731324e-09 -6.3812408e-10 1.2881957e-09 2.1927091e-09    189.91199    158.25999    158.25999    4756578.5 
      78            0   -2669999.8 -2.8936154e-09 -5.5253029e-09 -4.4380718e-09 1.2825283e-09 -1.37719e-09 4.2561773e-09 1.3688612e-09    189.91199    158.25999    158.25999    4756578.5 
      79            0   -2669999.8 4.7184828e-09 7.3713594e-09 6.5160341e-09  2.68055e-10 3.115565e-10 1.4428443e-09 -4.3237272e-10    189.91199    158.25999    158.25999    4756578.5 
      80            0   -2669999.8 -3.2083886e-09 -6.210911e-09 -9.0832352e-10 -2.5059313e-09 -1.5422353e-09 9.1946695e-10 6.6188524e-10    189.91199    158.25999    158.25999    4756578.5 
      81            0   -2669999.8 9.9685826e-09 1.9988632e-08 3.4537738e-09 6.4633422e-09 3.9312181e-10 6.4463398e-10 2.5593509e-10    189.91199    158.25999    158.25999    4756578.5 
      82            0   -2669999.8 -1.2470327e-08 -2.2376312e-08 -7.3584927e-10 -1.429882e-08 3.1071404e-10 2.2982653e-09 -1.648117e-09    189.91199    158.25999    158.25999    4756578.5 
      83            0   -2669999.8 -4.2997554e-09 -3.1227335e-08 6.7108718e-09 1.1617197e-08 -5.718762e-10 2.4420002e-09 6.5723257e-10    189.91199    158.25999    158.25999    4756578.5 
      84            0   -2669999.8 2.1832084e-08 2.4634714e-08 1.7348213e-08 2.3513325e-08 4.1632771e-10 1.1299859e-09 -9.7152706e-10    189.91199    158.25999    158.25999    4756578.5 
      85            0   -2669999.8 -4.7768933e-09 -1.4534402e-08 -6.1995761e-09 6.4032979e-09 -9.3604806e-10 2.1674736e-09 -7.9294499e-10    189.91199    158.25999    158.25999    4756578.5 
      86            0   -2669999.8 -1.7503634e-08 -2.2394693e-08 -6.9602396e-09 -2.315597e-08 1.0919029e-09 -2.3110936e-09 -1.4320456e-09    189.91199    158.25999    158.25999    4756578.5 
      87            0   -2669999.8 1.2628199e-09 2.5582557e-08 1.286664e-10 -2.1922763e-08 -1.5464476e-09 1.6265195e-09 -1.1560638e-09    189.91199    158.25999    158.25999    4756578.5 
      88            0   -2669999.8 4.0061203e-09 9.7277926e-09 -4.9888865e-09 7.2794548e-09 -1.9672939e-09 -1.2212969e-09 -9.4361104e-10    189.91199    158.25999    158.25999    4756578.5 
      89            0   -2669999.8 -9.5472512e-09 -1.3959079e-08 -1.4043938e-08 -6.3873677e-10 -2.000303e-09 5.4993398e-10 -1.3408877e-09    189.91199    158.25999    158.25999    4756578.5 
      90            0   -2669999.8 -7.3685001e-09 -8.630452e-09 -1.0591389e-08 -2.8836591e-09 1.783255e-09 2.5174577e-09 -4.3725515e-10    189.91199    158.25999    158.25999    4756578.5 
      91            0   -2669999.8 -1.0609617e-08 -4.0126761e-08 4.7658647e-09 3.5320459e-09 3.7910636e-11 1.7128332e-09 -1.1628417e-09    189.91199    158.25999    158.25999    4756578.5 
      92            0   -2669999.8 3.2188555e-09 -1.799369e-08 1.3774657e-08 1.3875599e-08 -1.1709408e-09 -4.4158232e-10 -1.8117646e-09    189.91199    158.25999    158.25999    4756578.5 
      93            0   -2669999.8 -3.1319036e-09 -6.8787509e-09 4.5728651e-09 -7.089825e-09 -2.0045919e-09 1.6728164e-09 9.1893084e-10    189.91199    158.25999    158.25999    4756578.5 
      94            0   -2669999.8 -1.9021183e-09 -4.4322512e-09 -2.5984486e-09 1.3243449e-09 3.4709293e-10 4.5023667e-10 -2.0430769e-09    189.91199    158.25999    158.25999    4756578.5 
      95            0   -2669999.8 5.6679592e-09 4.6846824e-09 8.3409526e-09 3.9782426e-09 6.0067296e-10 6.6305319e-10 -2.3672129e-09    189.91199    158.25999    158.25999    4756578.5 
      96            0   -2669999.8 7.0208966e-09 2.4164775e-08 -1.1748468e-09 -1.9272389e-09 -1.5089965e-09 3.0683299e-09 -4.9230216e-10    189.91199    158.25999    158.25999    4756578.5 
      97            0   -2669999.8 -1.6149165e-09 1.7083222e-08 -1.4342934e-08 -7.5850375e-09 -8.0546698e-10 1.5449733e-09 -2.2602206e-09    189.91199    158.25999    158.25999    4756578.5 
      98            0   -2669999.8 -1.6543691e-08 -2.741881e-08 -2.0734284e-08 -1.4779787e-09 1.3312377e-09 1.991438e-09 -1.5437288e-09    189.91199    158.25999    158.25999    4756578.5 
      99            0   -2669999.8 4.8678278e-09 9.0801717e-10 5.7253485e-09 7.9701176e-09 4.1556184e-10 -7.3102428e-11 -9.6201111e-10    189.91199    158.25999    158.25999    4756578.5 
     100            0   -2669999.8 5.6676018e-09 5.2814494e-09 6.9075476e-09 4.8138083e-09 5.6896589e-10 3.0180887e-09 -8.7175316e-11    189.91199    158.25999    158.25999    4756578.5 
Loop time of 12.3242 on 8 procs for 100 steps with 300000 atoms

99.3% CPU use with 8 MPI tasks x 1 OpenMP threads

Minimization stats:
  Stopping criterion = max iterations
  Energy initial, next-to-last, final = 
        -2669999.77876     -2669999.77881     -2669999.77881
  Force two-norm initial, final = 2.22855 2.95232e-08
  Force max component initial, final = 1.28666 2.05073e-08
  Final line search alpha, max atom move = 1 2.05073e-08
  Iterations, force evaluations = 100 200

MPI task timing breakdown:
Section |  min time  |  avg time  |  max time  |%varavg| %total
---------------------------------------------------------------
Pair    | 11.412     | 11.507     | 11.61      |   1.8 | 93.37
Neigh   | 0          | 0          | 0          |   0.0 |  0.00
Comm    | 0.13343    | 0.23747    | 0.33641    |  12.4 |  1.93
Output  | 0.030672   | 0.030893   | 0.032169   |   0.3 |  0.25
Modify  | 0          | 0          | 0          |   0.0 |  0.00
Other   |            | 0.5487     |            |       |  4.45

Nlocal:    37500 ave 37500 max 37500 min
Histogram: 8 0 0 0 0 0 0 0 0 0
Nghost:    22594 ave 22594 max 22594 min
Histogram: 8 0 0 0 0 0 0 0 0 0
Neighs:    1.2e+06 ave 1.20275e+06 max 1.19725e+06 min
Histogram: 2 0 0 0 2 2 0 0 0 2

Total # of neighbors = 9600000
Ave neighs/atom = 32
Neighbor list builds = 0
Dangerous builds = 0
Displacing atoms ...
System init for write_restart ...
OMP_NUM_THREADS environment is not set. Defaulting to 1 thread. (../comm.cpp:93)
  using 1 OpenMP thread(s) per MPI task
Reading restart file ...
  restart file = 7 Aug 2019, LAMMPS = 7 Aug 2019
  restoring atom style atomic from restart
  triclinic box = (4.42463e-06 3.68719e-06 3.68719e-06) to (189.912 158.26 158.26) with tilt (0 0 0)
  2 by 2 by 2 MPI processor grid
  pair style eam/fs stores no restart info
  300000 atoms
  read_restart CPU = 0.0469742 secs
Changing box ...
  triclinic box = (4.42463e-06 3.68719e-06 3.68719e-06) to (189.912 158.26 158.26) with tilt (0 0 0)
  triclinic box = (4.42463e-06 3.68719e-06 3.68719e-06) to (189.912 158.26 158.26) with tilt (0 0 0)
  triclinic box = (4.42463e-06 3.68719e-06 3.68719e-06) to (189.912 158.26 158.26) with tilt (0 0 0)
Neighbor list info ...
  update every 1 steps, delay 0 steps, check yes
  max neighbors/atom: 2000, page size: 100000
  master list distance cutoff = 6.6
  ghost atom cutoff = 6.6
  1 neighbor lists, perpetual/occasional/extra = 1 0 0
  (1) pair eam/fs, perpetual
      attributes: half, newton on
      pair build: half/nsq/newton
      stencil: none
      bin: none
Setting up cg style minimization ...
  Unit style    : metal
  Current step  : 100
Per MPI rank memory allocation (min/avg/max) = 21.15 | 21.15 | 21.15 Mbytes
Step Temp PotEng Press Pxx Pyy Pzz Pxy Pxz Pyz Lx Ly Lz Volume 
     100            0   -2669999.8    3.1005495    5.2212165    2.0402166    2.0402154 3.4024248e-07 1.4448551e-07 -4.5735791e-08     189.9118    158.25999    158.25999    4756573.8 
     101            0   -2669999.8    3.1003099    5.2209767    2.0399765    2.0399765 -5.7649881e-09 -7.8738943e-08 -1.1739007e-08     189.9118    158.25999    158.25999    4756573.8 
     102            0   -2669999.8    3.1002924    5.2209593     2.039959     2.039959 -1.606528e-08 -1.1602294e-09 -7.8403773e-09     189.9118    158.25999    158.25999    4756573.8 
     103            0   -2669999.8    3.1002902    5.2209571    2.0399567    2.0399567 -2.906485e-11 1.6022812e-09 -8.3436989e-11     189.9118    158.25999    158.25999    4756573.8 
     104            0   -2669999.8    3.1002897    5.2209566    2.0399562    2.0399562 1.6676867e-10 -7.2284933e-10 1.9022829e-09     189.9118    158.25999    158.25999    4756573.8 
     105            0   -2669999.8    3.1002895    5.2209564    2.0399561    2.0399561 1.1740055e-09 -1.8230439e-09 -5.1739454e-11     189.9118    158.25999    158.25999    4756573.8 
     106            0   -2669999.8    3.1002895    5.2209564    2.0399561    2.0399561 1.1740055e-09 -1.8230439e-09 -5.1739454e-11     189.9118    158.25999    158.25999    4756573.8 
Loop time of 1.72274 on 8 procs for 6 steps with 300000 atoms

99.3% CPU use with 8 MPI tasks x 1 OpenMP threads

Minimization stats:
  Stopping criterion = linesearch alpha is zero
  Energy initial, next-to-last, final = 
        -2669999.77849     -2669999.77876     -2669999.77876
  Force two-norm initial, final = 0.108915 0.00168863
  Force max component initial, final = 0.000353587 8.87418e-06
  Final line search alpha, max atom move = 0.00390625 3.46647e-08
  Iterations, force evaluations = 6 27

MPI task timing breakdown:
Section |  min time  |  avg time  |  max time  |%varavg| %total
---------------------------------------------------------------
Pair    | 1.652      | 1.6604     | 1.6671     |   0.4 | 96.38
Neigh   | 0          | 0          | 0          |   0.0 |  0.00
Comm    | 0.01941    | 0.025717   | 0.033515   |   3.0 |  1.49
Output  | 0.0027149  | 0.0027273  | 0.0027866  |   0.0 |  0.16
Modify  | 0          | 0          | 0          |   0.0 |  0.00
Other   |            | 0.03388    |            |       |  1.97

Nlocal:    37500 ave 37529 max 37479 min
Histogram: 2 1 2 0 0 0 0 0 1 2
Nghost:    22594 ave 22615 max 22565 min
Histogram: 1 2 0 0 0 0 0 2 1 2
Neighs:    1.2e+06 ave 1.20286e+06 max 1.1963e+06 min
Histogram: 1 1 0 0 2 0 0 2 0 2

Total # of neighbors = 9600000
Ave neighs/atom = 32
Neighbor list builds = 0
Dangerous builds = 0
OMP_NUM_THREADS environment is not set. Defaulting to 1 thread. (../comm.cpp:93)
  using 1 OpenMP thread(s) per MPI task
Reading restart file ...
  restart file = 7 Aug 2019, LAMMPS = 7 Aug 2019
  restoring atom style atomic from restart
  triclinic box = (4.42463e-06 3.68719e-06 3.68719e-06) to (189.912 158.26 158.26) with tilt (0 0 0)
  2 by 2 by 2 MPI processor grid
  pair style eam/fs stores no restart info
  300000 atoms
  read_restart CPU = 0.0286231 secs
Changing box ...
  triclinic box = (4.42463e-06 3.68719e-06 3.68719e-06) to (189.912 158.26 158.26) with tilt (0 0 0)
  triclinic box = (4.42463e-06 3.68719e-06 3.68719e-06) to (189.912 158.26 158.26) with tilt (0 0 0)
  triclinic box = (4.42463e-06 3.68719e-06 3.68719e-06) to (189.912 158.26 158.26) with tilt (0 0 0)
Neighbor list info ...
  update every 1 steps, delay 0 steps, check yes
  max neighbors/atom: 2000, page size: 100000
  master list distance cutoff = 6.6
  ghost atom cutoff = 6.6
  1 neighbor lists, perpetual/occasional/extra = 1 0 0
  (1) pair eam/fs, perpetual
      attributes: half, newton on
      pair build: half/nsq/newton
      stencil: none
      bin: none
Setting up cg style minimization ...
  Unit style    : metal
  Current step  : 100
Per MPI rank memory allocation (min/avg/max) = 21.15 | 21.15 | 21.15 Mbytes
Step Temp PotEng Press Pxx Pyy Pzz Pxy Pxz Pyz Lx Ly Lz Volume 
     100            0   -2669999.8   -3.1000247    -5.220716   -2.0396785   -2.0396797 3.3913622e-07 1.4377453e-07 -4.5892349e-08    189.91218    158.25999    158.25999    4756583.3 
     101            0   -2669999.8   -3.1002643   -5.2209557   -2.0399186   -2.0399186 -6.1056741e-09 -7.8467164e-08 -1.2056087e-08    189.91218    158.25999    158.25999    4756583.3 
     102            0   -2669999.8   -3.1002817   -5.2209731   -2.0399361   -2.0399361 -1.5648997e-08 -9.3811498e-10 -7.2581467e-09    189.91218    158.25999    158.25999    4756583.3 
     103            0   -2669999.8    -3.100284   -5.2209754   -2.0399383   -2.0399383 -1.8691074e-10 1.7368319e-09 -6.2470634e-10    189.91218    158.25999    158.25999    4756583.3 
     104            0   -2669999.8   -3.1002845   -5.2209759   -2.0399388   -2.0399389  1.96599e-10 -2.5156458e-10 9.1438256e-10    189.91218    158.25999    158.25999    4756583.3 
     105            0   -2669999.8   -3.1002847    -5.220976    -2.039939    -2.039939 4.0667732e-11 -1.814137e-09 -2.0314719e-11    189.91218    158.25999    158.25999    4756583.3 
     106            0   -2669999.8   -3.1002847   -5.2209761   -2.0399391   -2.0399391 4.5377837e-11 -4.7486853e-10 6.6674307e-10    189.91218    158.25999    158.25999    4756583.3 
     107            0   -2669999.8   -3.1002848   -5.2209761   -2.0399391   -2.0399391 2.2865069e-10 -2.8805832e-10 2.4773523e-10    189.91218    158.25999    158.25999    4756583.3 
     108            0   -2669999.8   -3.1002848   -5.2209761   -2.0399391   -2.0399391 3.2886486e-10 -7.7259118e-10 4.9818929e-10    189.91218    158.25999    158.25999    4756583.3 
     109            0   -2669999.8   -3.1002848   -5.2209761   -2.0399391   -2.0399391 3.8504148e-10 3.1317888e-10 -3.401806e-10    189.91218    158.25999    158.25999    4756583.3 
     110            0   -2669999.8   -3.1002848   -5.2209761   -2.0399391   -2.0399391 1.2177344e-10 1.1158736e-10 4.0054078e-10    189.91218    158.25999    158.25999    4756583.3 
     111            0   -2669999.8   -3.1002848   -5.2209761   -2.0399391   -2.0399391 3.4724576e-10 5.0440721e-10 1.8616401e-10    189.91218    158.25999    158.25999    4756583.3 
     112            0   -2669999.8   -3.1002848   -5.2209761   -2.0399391   -2.0399391 -1.3471665e-10 3.0513245e-10 1.2632079e-11    189.91218    158.25999    158.25999    4756583.3 
     113            0   -2669999.8   -3.1002848   -5.2209761   -2.0399391   -2.0399391 2.4262783e-10 -1.5508881e-10 4.1681554e-10    189.91218    158.25999    158.25999    4756583.3 
     114            0   -2669999.8   -3.1002848   -5.2209761   -2.0399391   -2.0399391 -4.1762927e-10 5.9752272e-10 -1.4848318e-11    189.91218    158.25999    158.25999    4756583.3 
     115            0   -2669999.8   -3.1002848   -5.2209761   -2.0399391   -2.0399391 -8.5708586e-10 -9.2679924e-11 -4.1404883e-11    189.91218    158.25999    158.25999    4756583.3 
     116            0   -2669999.8   -3.1002848   -5.2209761   -2.0399391   -2.0399391 -8.5708586e-10 -9.2679924e-11 -4.1404883e-11    189.91218    158.25999    158.25999    4756583.3 
Loop time of 2.11634 on 8 procs for 16 steps with 300000 atoms

99.2% CPU use with 8 MPI tasks x 1 OpenMP threads

Minimization stats:
  Stopping criterion = linesearch alpha is zero
  Energy initial, next-to-last, final = 
        -2669999.77849     -2669999.77878     -2669999.77878
  Force two-norm initial, final = 0.108914 0.0001032
  Force max component initial, final = 0.000353585 5.31499e-07
  Final line search alpha, max atom move = 0.5 2.65749e-07
  Iterations, force evaluations = 16 33

MPI task timing breakdown:
Section |  min time  |  avg time  |  max time  |%varavg| %total
---------------------------------------------------------------
Pair    | 1.9958     | 2.0122     | 2.0341     |   0.8 | 95.08
Neigh   | 0          | 0          | 0          |   0.0 |  0.00
Comm    | 0.024262   | 0.045901   | 0.062183   |   5.4 |  2.17
Output  | 0.007941   | 0.0079737  | 0.0081522  |   0.1 |  0.38
Modify  | 0          | 0          | 0          |   0.0 |  0.00
Other   |            | 0.05022    |            |       |  2.37

Nlocal:    37500 ave 37529 max 37479 min
Histogram: 2 1 2 0 0 0 0 0 1 2
Nghost:    22594 ave 22615 max 22565 min
Histogram: 1 2 0 0 0 0 0 2 1 2
Neighs:    1.2e+06 ave 1.20286e+06 max 1.1963e+06 min
Histogram: 1 1 0 0 2 0 0 2 0 2

Total # of neighbors = 9600000
Ave neighs/atom = 32
Neighbor list builds = 0
Dangerous builds = 0
OMP_NUM_THREADS environment is not set. Defaulting to 1 thread. (../comm.cpp:93)
  using 1 OpenMP thread(s) per MPI task
Reading restart file ...
  restart file = 7 Aug 2019, LAMMPS = 7 Aug 2019
  restoring atom style atomic from restart
  triclinic box = (4.42463e-06 3.68719e-06 3.68719e-06) to (189.912 158.26 158.26) with tilt (0 0 0)
  2 by 2 by 2 MPI processor grid
  pair style eam/fs stores no restart info
  300000 atoms
  read_restart CPU = 0.02333 secs
Changing box ...
  triclinic box = (4.42463e-06 3.68719e-06 3.68719e-06) to (189.912 158.26 158.26) with tilt (0 0 0)
  triclinic box = (4.42463e-06 3.68719e-06 3.68719e-06) to (189.912 158.26 158.26) with tilt (0 0 0)
Neighbor list info ...
  update every 1 steps, delay 0 steps, check yes
  max neighbors/atom: 2000, page size: 100000
  master list distance cutoff = 6.6
  ghost atom cutoff = 6.6
  1 neighbor lists, perpetual/occasional/extra = 1 0 0
  (1) pair eam/fs, perpetual
      attributes: half, newton on
      pair build: half/nsq/newton
      stencil: none
      bin: none
Setting up cg style minimization ...
  Unit style    : metal
  Current step  : 100
Per MPI rank memory allocation (min/avg/max) = 21.15 | 21.15 | 21.15 Mbytes
Step Temp PotEng Press Pxx Pyy Pzz Pxy Pxz Pyz Lx Ly Lz Volume 
     100            0   -2669999.8    3.1005495    2.0402161    5.2212169    2.0402154 3.3959126e-07 1.4450247e-07 -4.5125573e-08    189.91199    158.25983    158.25999    4756573.8 
     101            0   -2669999.8    3.1003099    2.0399764    5.2209768    2.0399765 -6.3594198e-09 -7.8896995e-08 -1.2166043e-08    189.91199    158.25983    158.25999    4756573.8 
     102            0   -2669999.8    3.1002924     2.039959    5.2209593     2.039959 -1.5159176e-08 -9.520653e-10 -7.3385635e-09    189.91199    158.25983    158.25999    4756573.8 
     103            0   -2669999.8    3.1002902    2.0399567     5.220957    2.0399567 -4.818102e-10 2.6372043e-09 -5.2690571e-10    189.91199    158.25983    158.25999    4756573.8 
     104            0   -2669999.8    3.1002897    2.0399562    5.2209565    2.0399562 1.612161e-10 -6.5692688e-11 1.9045806e-10    189.91199    158.25983    158.25999    4756573.8 
     105            0   -2669999.8    3.1002895    2.0399561    5.2209564    2.0399561 4.0744401e-11 -9.9624177e-10 5.6714272e-10    189.91199    158.25983    158.25999    4756573.8 
     106            0   -2669999.8    3.1002895    2.0399561    5.2209564    2.0399561 4.0744401e-11 -9.9624177e-10 5.6714272e-10    189.91199    158.25983    158.25999    4756573.8 
Loop time of 1.71847 on 8 procs for 6 steps with 300000 atoms

99.4% CPU use with 8 MPI tasks x 1 OpenMP threads

Minimization stats:
  Stopping criterion = linesearch alpha is zero
  Energy initial, next-to-last, final = 
        -2669999.77849     -2669999.77876     -2669999.77876
  Force two-norm initial, final = 0.108915 0.00168863
  Force max component initial, final = 0.000353588 8.87418e-06
  Final line search alpha, max atom move = 0.00390625 3.46648e-08
  Iterations, force evaluations = 6 27

MPI task timing breakdown:
Section |  min time  |  avg time  |  max time  |%varavg| %total
---------------------------------------------------------------
Pair    | 1.6483     | 1.6551     | 1.6625     |   0.4 | 96.31
Neigh   | 0          | 0          | 0          |   0.0 |  0.00
Comm    | 0.02027    | 0.027572   | 0.034294   |   3.5 |  1.60
Output  | 0.0026708  | 0.0026837  | 0.002744   |   0.0 |  0.16
Modify  | 0          | 0          | 0          |   0.0 |  0.00
Other   |            | 0.03311    |            |       |  1.93

Nlocal:    37500 ave 37529 max 37479 min
Histogram: 2 1 2 0 0 0 0 0 1 2
Nghost:    22594 ave 22615 max 22565 min
Histogram: 1 2 0 0 0 0 0 2 1 2
Neighs:    1.2e+06 ave 1.20286e+06 max 1.1963e+06 min
Histogram: 1 1 0 0 2 0 0 2 0 2

Total # of neighbors = 9600000
Ave neighs/atom = 32
Neighbor list builds = 0
Dangerous builds = 0
OMP_NUM_THREADS environment is not set. Defaulting to 1 thread. (../comm.cpp:93)
  using 1 OpenMP thread(s) per MPI task
Reading restart file ...
  restart file = 7 Aug 2019, LAMMPS = 7 Aug 2019
  restoring atom style atomic from restart
  triclinic box = (4.42463e-06 3.68719e-06 3.68719e-06) to (189.912 158.26 158.26) with tilt (0 0 0)
  2 by 2 by 2 MPI processor grid
  pair style eam/fs stores no restart info
  300000 atoms
  read_restart CPU = 0.024462 secs
Changing box ...
  triclinic box = (4.42463e-06 3.68719e-06 3.68719e-06) to (189.912 158.26 158.26) with tilt (0 0 0)
  triclinic box = (4.42463e-06 3.68719e-06 3.68719e-06) to (189.912 158.26 158.26) with tilt (0 0 0)
Neighbor list info ...
  update every 1 steps, delay 0 steps, check yes
  max neighbors/atom: 2000, page size: 100000
  master list distance cutoff = 6.6
  ghost atom cutoff = 6.6
  1 neighbor lists, perpetual/occasional/extra = 1 0 0
  (1) pair eam/fs, perpetual
      attributes: half, newton on
      pair build: half/nsq/newton
      stencil: none
      bin: none
Setting up cg style minimization ...
  Unit style    : metal
  Current step  : 100
Per MPI rank memory allocation (min/avg/max) = 21.15 | 21.15 | 21.15 Mbytes
Step Temp PotEng Press Pxx Pyy Pzz Pxy Pxz Pyz Lx Ly Lz Volume 
     100            0   -2669999.8   -3.1000247   -2.0396789   -5.2207156   -2.0396797 3.3926202e-07 1.4397551e-07 -4.5632499e-08    189.91199    158.26015    158.25999    4756583.3 
     101            0   -2669999.8   -3.1002643   -2.0399187   -5.2209556   -2.0399186 -6.4242763e-09 -7.8351321e-08 -1.1311632e-08    189.91199    158.26015    158.25999    4756583.3 
     102            0   -2669999.8   -3.1002817   -2.0399361   -5.2209731   -2.0399361 -1.5682121e-08 -1.0531583e-09 -7.5684201e-09    189.91199    158.26015    158.25999    4756583.3 
     103            0   -2669999.8    -3.100284   -2.0399383   -5.2209754   -2.0399383 -3.4885409e-11  1.84167e-09 -1.3249563e-09    189.91199    158.26015    158.25999    4756583.3 
     104            0   -2669999.8   -3.1002845   -2.0399388   -5.2209759   -2.0399388 4.1073644e-10 -5.0088899e-10 6.586392e-10    189.91199    158.26015    158.25999    4756583.3 
     105            0   -2669999.8   -3.1002847    -2.039939    -5.220976    -2.039939 -7.9956898e-11 -4.4673236e-10 4.0317347e-10    189.91199    158.26015    158.25999    4756583.3 
     106            0   -2669999.8   -3.1002847    -2.039939   -5.2209761   -2.0399391 -5.4928244e-10 -7.9931049e-10 -4.344545e-10    189.91199    158.26015    158.25999    4756583.3 
     107            0   -2669999.8   -3.1002848   -2.0399391   -5.2209761   -2.0399391 2.2095369e-10 -4.94628e-10 4.8971685e-10    189.91199    158.26015    158.25999    4756583.3 
     108            0   -2669999.8   -3.1002848   -2.0399391   -5.2209761   -2.0399391 2.3623281e-10 -5.2184513e-11 1.5287736e-10    189.91199    158.26015    158.25999    4756583.3 
     109            0   -2669999.8   -3.1002848   -2.0399391   -5.2209761   -2.0399391 5.4989514e-10 -4.0961635e-10 6.3916694e-11    189.91199    158.26015    158.25999    4756583.3 
     110            0   -2669999.8   -3.1002848   -2.0399391   -5.2209761   -2.0399391 -1.0645602e-11 -7.9995191e-11 -2.2802842e-10    189.91199    158.26015    158.25999    4756583.3 
     111            0   -2669999.8   -3.1002848   -2.0399391   -5.2209761   -2.0399391 1.7791176e-10 -5.225727e-10 -5.1222387e-11    189.91199    158.26015    158.25999    4756583.3 
     112            0   -2669999.8   -3.1002848   -2.0399391   -5.2209761   -2.0399391 5.9776205e-10 1.5557227e-10 -8.5983342e-11    189.91199    158.26015    158.25999    4756583.3 
     113            0   -2669999.8   -3.1002848   -2.0399391   -5.2209761   -2.0399391 -1.5508881e-10 -5.5717091e-11 -8.3307582e-11    189.91199    158.26015    158.25999    4756583.3 
     114            0   -2669999.8   -3.1002848   -2.0399391   -5.2209761   -2.0399391 4.494512e-10 -3.2606465e-10 -3.2692147e-10    189.91199    158.26015    158.25999    4756583.3 
     115            0   -2669999.8   -3.1002848   -2.0399391   -5.2209761   -2.0399391 4.0349896e-10 -1.129755e-10 -5.675341e-10    189.91199    158.26015    158.25999    4756583.3 
     116            0   -2669999.8   -3.1002848   -2.0399391   -5.2209761   -2.0399391 4.0349896e-10 -1.129755e-10 -5.675341e-10    189.91199    158.26015    158.25999    4756583.3 
Loop time of 2.10906 on 8 procs for 16 steps with 300000 atoms

99.4% CPU use with 8 MPI tasks x 1 OpenMP threads

Minimization stats:
  Stopping criterion = linesearch alpha is zero
  Energy initial, next-to-last, final = 
        -2669999.77849     -2669999.77878     -2669999.77878
  Force two-norm initial, final = 0.108914 0.0001032
  Force max component initial, final = 0.000353584 5.31489e-07
  Final line search alpha, max atom move = 0.5 2.65744e-07
  Iterations, force evaluations = 16 33

MPI task timing breakdown:
Section |  min time  |  avg time  |  max time  |%varavg| %total
---------------------------------------------------------------
Pair    | 1.9988     | 2.0102     | 2.0278     |   0.7 | 95.31
Neigh   | 0          | 0          | 0          |   0.0 |  0.00
Comm    | 0.023647   | 0.040835   | 0.051963   |   5.0 |  1.94
Output  | 0.0080206  | 0.0080512  | 0.0082257  |   0.1 |  0.38
Modify  | 0          | 0          | 0          |   0.0 |  0.00
Other   |            | 0.04996    |            |       |  2.37

Nlocal:    37500 ave 37529 max 37479 min
Histogram: 2 1 2 0 0 0 0 0 1 2
Nghost:    22594 ave 22615 max 22565 min
Histogram: 1 2 0 0 0 0 0 2 1 2
Neighs:    1.2e+06 ave 1.20286e+06 max 1.1963e+06 min
Histogram: 1 1 0 0 2 0 0 2 0 2

Total # of neighbors = 9600000
Ave neighs/atom = 32
Neighbor list builds = 0
Dangerous builds = 0
OMP_NUM_THREADS environment is not set. Defaulting to 1 thread. (../comm.cpp:93)
  using 1 OpenMP thread(s) per MPI task
Reading restart file ...
  restart file = 7 Aug 2019, LAMMPS = 7 Aug 2019
  restoring atom style atomic from restart
  triclinic box = (4.42463e-06 3.68719e-06 3.68719e-06) to (189.912 158.26 158.26) with tilt (0 0 0)
  2 by 2 by 2 MPI processor grid
  pair style eam/fs stores no restart info
  300000 atoms
  read_restart CPU = 0.022228 secs
Changing box ...
  triclinic box = (4.42463e-06 3.68719e-06 3.68719e-06) to (189.912 158.26 158.26) with tilt (0 0 0)
Neighbor list info ...
  update every 1 steps, delay 0 steps, check yes
  max neighbors/atom: 2000, page size: 100000
  master list distance cutoff = 6.6
  ghost atom cutoff = 6.6
  1 neighbor lists, perpetual/occasional/extra = 1 0 0
  (1) pair eam/fs, perpetual
      attributes: half, newton on
      pair build: half/nsq/newton
      stencil: none
      bin: none
Setting up cg style minimization ...
  Unit style    : metal
  Current step  : 100
Per MPI rank memory allocation (min/avg/max) = 21.15 | 21.15 | 21.15 Mbytes
Step Temp PotEng Press Pxx Pyy Pzz Pxy Pxz Pyz Lx Ly Lz Volume 
     100            0   -2669999.8    3.1005495    2.0402161    2.0402166    5.2212157 3.3926798e-07 1.4383021e-07 -4.4952998e-08    189.91199    158.25999    158.25983    4756573.8 
     101            0   -2669999.8    3.1003099    2.0399764    2.0399765    5.2209768 -6.1345214e-09 -7.8678285e-08 -1.1381813e-08    189.91199    158.25999    158.25983    4756573.8 
     102            0   -2669999.8    3.1002924     2.039959     2.039959    5.2209593 -1.5578683e-08 -2.0384119e-09 -7.6725364e-09    189.91199    158.25999    158.25983    4756573.8 
     103            0   -2669999.8    3.1002902    2.0399567    2.0399567     5.220957 -1.1377031e-10 2.3255087e-09 -6.0999806e-10    189.91199    158.25999    158.25983    4756573.8 
     104            0   -2669999.8    3.1002897    2.0399562    2.0399562    5.2209565 3.0190682e-10 1.9636963e-10 7.9895788e-10    189.91199    158.25999    158.25983    4756573.8 
     105            0   -2669999.8    3.1002895    2.0399561    2.0399561    5.2209564 1.1698698e-10 -1.4171508e-09 1.8499643e-10    189.91199    158.25999    158.25983    4756573.8 
     106            0   -2669999.8    3.1002895    2.0399561    2.0399561    5.2209564 1.1698698e-10 -1.4171508e-09 1.8499643e-10    189.91199    158.25999    158.25983    4756573.8 
Loop time of 1.72538 on 8 procs for 6 steps with 300000 atoms

99.1% CPU use with 8 MPI tasks x 1 OpenMP threads

Minimization stats:
  Stopping criterion = linesearch alpha is zero
  Energy initial, next-to-last, final = 
        -2669999.77849     -2669999.77876     -2669999.77876
  Force two-norm initial, final = 0.108915 0.00168863
  Force max component initial, final = 0.000353588 8.87416e-06
  Final line search alpha, max atom move = 0.00390625 3.46647e-08
  Iterations, force evaluations = 6 27

MPI task timing breakdown:
Section |  min time  |  avg time  |  max time  |%varavg| %total
---------------------------------------------------------------
Pair    | 1.6492     | 1.6571     | 1.6678     |   0.6 | 96.04
Neigh   | 0          | 0          | 0          |   0.0 |  0.00
Comm    | 0.02115    | 0.031663   | 0.039539   |   3.9 |  1.84
Output  | 0.0028131  | 0.0028237  | 0.0028813  |   0.0 |  0.16
Modify  | 0          | 0          | 0          |   0.0 |  0.00
Other   |            | 0.03376    |            |       |  1.96

Nlocal:    37500 ave 37529 max 37479 min
Histogram: 2 1 2 0 0 0 0 0 1 2
Nghost:    22594 ave 22615 max 22565 min
Histogram: 1 2 0 0 0 0 0 2 1 2
Neighs:    1.2e+06 ave 1.20286e+06 max 1.1963e+06 min
Histogram: 1 1 0 0 2 0 0 2 0 2

Total # of neighbors = 9600000
Ave neighs/atom = 32
Neighbor list builds = 0
Dangerous builds = 0
OMP_NUM_THREADS environment is not set. Defaulting to 1 thread. (../comm.cpp:93)
  using 1 OpenMP thread(s) per MPI task
Reading restart file ...
  restart file = 7 Aug 2019, LAMMPS = 7 Aug 2019
  restoring atom style atomic from restart
  triclinic box = (4.42463e-06 3.68719e-06 3.68719e-06) to (189.912 158.26 158.26) with tilt (0 0 0)
  2 by 2 by 2 MPI processor grid
  pair style eam/fs stores no restart info
  300000 atoms
  read_restart CPU = 0.0223739 secs
Changing box ...
  triclinic box = (4.42463e-06 3.68719e-06 3.68719e-06) to (189.912 158.26 158.26) with tilt (0 0 0)
Neighbor list info ...
  update every 1 steps, delay 0 steps, check yes
  max neighbors/atom: 2000, page size: 100000
  master list distance cutoff = 6.6
  ghost atom cutoff = 6.6
  1 neighbor lists, perpetual/occasional/extra = 1 0 0
  (1) pair eam/fs, perpetual
      attributes: half, newton on
      pair build: half/nsq/newton
      stencil: none
      bin: none
Setting up cg style minimization ...
  Unit style    : metal
  Current step  : 100
Per MPI rank memory allocation (min/avg/max) = 21.15 | 21.15 | 21.15 Mbytes
Step Temp PotEng Press Pxx Pyy Pzz Pxy Pxz Pyz Lx Ly Lz Volume 
     100            0   -2669999.8   -3.1000247   -2.0396789   -2.0396785   -5.2207167 3.395264e-07 1.4460584e-07 -4.5976173e-08    189.91199    158.25999    158.26015    4756583.3 
     101            0   -2669999.8   -3.1002643   -2.0399187   -2.0399186   -5.2209557 -6.5500323e-09 -7.8708471e-08 -1.1591319e-08    189.91199    158.25999    158.26015    4756583.3 
     102            0   -2669999.8   -3.1002817   -2.0399361   -2.0399361   -5.2209731 -1.5963119e-08 -1.0245339e-09 -7.681903e-09    189.91199    158.25999    158.26015    4756583.3 
     103            0   -2669999.8    -3.100284   -2.0399383   -2.0399383   -5.2209754 -3.4594378e-10 1.9056394e-09 -6.7648877e-10    189.91199    158.25999    158.26015    4756583.3 
     104            0   -2669999.8   -3.1002845   -2.0399388   -2.0399388   -5.2209759 1.1077553e-09 -1.1734096e-10 1.3222278e-10    189.91199    158.25999    158.26015    4756583.3 
     105            0   -2669999.8   -3.1002847    -2.039939    -2.039939    -5.220976 3.7351512e-10 -8.7015832e-10 6.3369096e-10    189.91199    158.25999    158.26015    4756583.3 
     106            0   -2669999.8   -3.1002847    -2.039939   -2.0399391   -5.2209761 -2.3163758e-10 -6.925194e-10 2.4157475e-10    189.91199    158.25999    158.26015    4756583.3 
     107            0   -2669999.8   -3.1002848   -2.0399391   -2.0399391   -5.2209761 -2.2037928e-10 -1.4610419e-10 2.2958888e-10    189.91199    158.25999    158.26015    4756583.3 
     108            0   -2669999.8   -3.1002848   -2.0399391   -2.0399391   -5.2209761 4.7085729e-10 -6.8215143e-11 5.7722715e-10    189.91199    158.25999    158.26015    4756583.3 
     109            0   -2669999.8   -3.1002848   -2.0399391   -2.0399391   -5.2209761 4.5136588e-10 3.4690112e-10 2.6594859e-10    189.91199    158.25999    158.26015    4756583.3 
     110            0   -2669999.8   -3.1002848   -2.0399391   -2.0399391   -5.2209762 -1.2904921e-11 -1.1929393e-10 8.7936313e-11    189.91199    158.25999    158.26015    4756583.3 
     111            0   -2669999.8   -3.1002848   -2.0399391   -2.0399391   -5.2209762 2.4699329e-10 -4.2309568e-10 1.3571707e-10    189.91199    158.25999    158.26015    4756583.3 
     112            0   -2669999.8   -3.1002848   -2.0399391   -2.0399391   -5.2209762 1.2751747e-11 -2.3305444e-10 -5.4453404e-11    189.91199    158.25999    158.26015    4756583.3 
     113            0   -2669999.8   -3.1002848   -2.0399391   -2.0399391   -5.2209762 -7.8406009e-10 -1.3079156e-10 1.5447133e-10    189.91199    158.25999    158.26015    4756583.3 
     114            0   -2669999.8   -3.1002848   -2.0399391   -2.0399391   -5.2209762 -2.0241962e-10 -3.0902881e-11 -2.8588516e-10    189.91199    158.25999    158.26015    4756583.3 
     115            0   -2669999.8   -3.1002848   -2.0399391   -2.0399391   -5.2209762 -1.1499548e-10 4.0893664e-10 1.2976721e-10    189.91199    158.25999    158.26015    4756583.3 
     116            0   -2669999.8   -3.1002848   -2.0399391   -2.0399391   -5.2209762 -1.1499548e-10 4.0893664e-10 1.2976721e-10    189.91199    158.25999    158.26015    4756583.3 
Loop time of 2.10785 on 8 procs for 16 steps with 300000 atoms

99.3% CPU use with 8 MPI tasks x 1 OpenMP threads

Minimization stats:
  Stopping criterion = linesearch alpha is zero
  Energy initial, next-to-last, final = 
        -2669999.77849     -2669999.77878     -2669999.77878
  Force two-norm initial, final = 0.108914 0.0001032
  Force max component initial, final = 0.000353584 5.31488e-07
  Final line search alpha, max atom move = 0.5 2.65744e-07
  Iterations, force evaluations = 16 33

MPI task timing breakdown:
Section |  min time  |  avg time  |  max time  |%varavg| %total
---------------------------------------------------------------
Pair    | 1.9999     | 2.0122     | 2.0242     |   0.6 | 95.46
Neigh   | 0          | 0          | 0          |   0.0 |  0.00
Comm    | 0.025966   | 0.037922   | 0.050314   |   4.1 |  1.80
Output  | 0.0080171  | 0.0080532  | 0.0082645  |   0.1 |  0.38
Modify  | 0          | 0          | 0          |   0.0 |  0.00
Other   |            | 0.04968    |            |       |  2.36

Nlocal:    37500 ave 37529 max 37479 min
Histogram: 2 1 2 0 0 0 0 0 1 2
Nghost:    22594 ave 22615 max 22565 min
Histogram: 1 2 0 0 0 0 0 2 1 2
Neighs:    1.2e+06 ave 1.20286e+06 max 1.1963e+06 min
Histogram: 1 1 0 0 2 0 0 2 0 2

Total # of neighbors = 9600000
Ave neighs/atom = 32
Neighbor list builds = 0
Dangerous builds = 0
OMP_NUM_THREADS environment is not set. Defaulting to 1 thread. (../comm.cpp:93)
  using 1 OpenMP thread(s) per MPI task
Reading restart file ...
  restart file = 7 Aug 2019, LAMMPS = 7 Aug 2019
  restoring atom style atomic from restart
  triclinic box = (4.42463e-06 3.68719e-06 3.68719e-06) to (189.912 158.26 158.26) with tilt (0 0 0)
  2 by 2 by 2 MPI processor grid
  pair style eam/fs stores no restart info
  300000 atoms
  read_restart CPU = 0.024159 secs
Changing box ...
  triclinic box = (4.42463e-06 3.68719e-06 3.68719e-06) to (189.912 158.26 158.26) with tilt (0 0 -0.00015826)
Neighbor list info ...
  update every 1 steps, delay 0 steps, check yes
  max neighbors/atom: 2000, page size: 100000
  master list distance cutoff = 6.6
  ghost atom cutoff = 6.6
  1 neighbor lists, perpetual/occasional/extra = 1 0 0
  (1) pair eam/fs, perpetual
      attributes: half, newton on
      pair build: half/nsq/newton
      stencil: none
      bin: none
Setting up cg style minimization ...
  Unit style    : metal
  Current step  : 100
Per MPI rank memory allocation (min/avg/max) = 21.15 | 21.15 | 21.15 Mbytes
Step Temp PotEng Press Pxx Pyy Pzz Pxy Pxz Pyz Lx Ly Lz Volume 
     100            0   -2669999.8 0.00026447546 0.00026619164 0.00026339695 0.00026383779 3.3954194e-07 1.4428531e-07    1.6106345    189.91199    158.25999    158.25999    4756578.5 
     101            0   -2669999.8 2.4904878e-05 2.6435439e-05 2.3346454e-05 2.4932741e-05 -6.2084602e-09 -7.9120813e-08    1.6106345    189.91199    158.25999    158.25999    4756578.5 
     102            0   -2669999.8 7.4603115e-06 9.0581881e-06 5.8550626e-06 7.4676837e-06 -1.5265158e-08 -9.8575312e-10    1.6106345    189.91199    158.25999    158.25999    4756578.5 
     103            0   -2669999.8 5.198087e-06 6.8042604e-06 3.583949e-06 5.2060518e-06 -2.7709228e-10 1.7457561e-09    1.6106345    189.91199    158.25999    158.25999    4756578.5 
     104            0   -2669999.8 4.6904327e-06 6.298141e-06 3.0769484e-06 4.6962087e-06 5.9531186e-10 -3.2877425e-10    1.6106345    189.91199    158.25999    158.25999    4756578.5 
     105            0   -2669999.8 4.5320795e-06 6.1397897e-06 2.918403e-06 4.5380457e-06 -9.1253581e-11 -1.524783e-09    1.6106345    189.91199    158.25999    158.25999    4756578.5 
     106            0   -2669999.8 4.4728231e-06 6.080506e-06 2.859171e-06 4.4787923e-06 1.2790053e-11 -6.6412063e-10    1.6106345    189.91199    158.25999    158.25999    4756578.5 
     107            0   -2669999.8 4.4728231e-06 6.080506e-06 2.859171e-06 4.4787923e-06 1.2790053e-11 -6.6412063e-10    1.6106345    189.91199    158.25999    158.25999    4756578.5 
Loop time of 1.72238 on 8 procs for 7 steps with 300000 atoms

99.3% CPU use with 8 MPI tasks x 1 OpenMP threads

Minimization stats:
  Stopping criterion = linesearch alpha is zero
  Energy initial, next-to-last, final = 
        -2669999.77849     -2669999.77876     -2669999.77876
  Force two-norm initial, final = 0.108914 0.0010854
  Force max component initial, final = 0.000353586 5.54438e-06
  Final line search alpha, max atom move = 0.0078125 4.33155e-08
  Iterations, force evaluations = 7 27

MPI task timing breakdown:
Section |  min time  |  avg time  |  max time  |%varavg| %total
---------------------------------------------------------------
Pair    | 1.6467     | 1.6566     | 1.6671     |   0.6 | 96.18
Neigh   | 0          | 0          | 0          |   0.0 |  0.00
Comm    | 0.018453   | 0.028849   | 0.038564   |   4.6 |  1.67
Output  | 0.0031865  | 0.0032001  | 0.0032752  |   0.1 |  0.19
Modify  | 0          | 0          | 0          |   0.0 |  0.00
Other   |            | 0.03369    |            |       |  1.96

Nlocal:    37500 ave 37529 max 37479 min
Histogram: 2 1 2 0 0 0 0 0 1 2
Nghost:    22594 ave 22615 max 22565 min
Histogram: 1 2 0 0 0 0 0 2 1 2
Neighs:    1.2e+06 ave 1.20286e+06 max 1.1963e+06 min
Histogram: 1 1 0 0 2 0 0 2 0 2

Total # of neighbors = 9600000
Ave neighs/atom = 32
Neighbor list builds = 0
Dangerous builds = 0
OMP_NUM_THREADS environment is not set. Defaulting to 1 thread. (../comm.cpp:93)
  using 1 OpenMP thread(s) per MPI task
Reading restart file ...
  restart file = 7 Aug 2019, LAMMPS = 7 Aug 2019
  restoring atom style atomic from restart
  triclinic box = (4.42463e-06 3.68719e-06 3.68719e-06) to (189.912 158.26 158.26) with tilt (0 0 0)
  2 by 2 by 2 MPI processor grid
  pair style eam/fs stores no restart info
  300000 atoms
  read_restart CPU = 0.0220878 secs
Changing box ...
  triclinic box = (4.42463e-06 3.68719e-06 3.68719e-06) to (189.912 158.26 158.26) with tilt (0 0 0.00015826)
Neighbor list info ...
  update every 1 steps, delay 0 steps, check yes
  max neighbors/atom: 2000, page size: 100000
  master list distance cutoff = 6.6
  ghost atom cutoff = 6.6
  1 neighbor lists, perpetual/occasional/extra = 1 0 0
  (1) pair eam/fs, perpetual
      attributes: half, newton on
      pair build: half/nsq/newton
      stencil: none
      bin: none
Setting up cg style minimization ...
  Unit style    : metal
  Current step  : 100
Per MPI rank memory allocation (min/avg/max) = 21.15 | 21.15 | 21.15 Mbytes
Step Temp PotEng Press Pxx Pyy Pzz Pxy Pxz Pyz Lx Ly Lz Volume 
     100            0   -2669999.8 0.00026447494 0.00026619084 0.00026339666 0.00026383732 3.3925627e-07 1.4423336e-07   -1.6106346    189.91199    158.25999    158.25999    4756578.5 
     101            0   -2669999.8 2.490439e-05 2.6434008e-05 2.3346247e-05 2.4932914e-05 -5.7241231e-09 -7.8965911e-08   -1.6106346    189.91199    158.25999    158.25999    4756578.5 
     102            0   -2669999.8 7.4603161e-06 9.0581388e-06 5.8550127e-06 7.4677968e-06 -1.6130822e-08 -1.2710307e-09   -1.6106345    189.91199    158.25999    158.25999    4756578.5 
     103            0   -2669999.8 5.1981834e-06 6.8035211e-06 3.5844742e-06 5.2065549e-06 2.9551149e-10 2.3369897e-09   -1.6106345    189.91199    158.25999    158.25999    4756578.5 
     104            0   -2669999.8 4.6906469e-06 6.2984393e-06 3.0767949e-06 4.6967063e-06  1.00804e-09 -3.8578859e-10   -1.6106345    189.91199    158.25999    158.25999    4756578.5 
     105            0   -2669999.8 4.5321126e-06 6.1400041e-06 2.9181999e-06 4.5381338e-06 3.0577417e-10 -6.0925551e-10   -1.6106345    189.91199    158.25999    158.25999    4756578.5 
     106            0   -2669999.8 4.5321126e-06 6.1400041e-06 2.9181999e-06 4.5381338e-06 3.0577417e-10 -6.0925551e-10   -1.6106345    189.91199    158.25999    158.25999    4756578.5 
Loop time of 1.72086 on 8 procs for 6 steps with 300000 atoms

99.1% CPU use with 8 MPI tasks x 1 OpenMP threads

Minimization stats:
  Stopping criterion = linesearch alpha is zero
  Energy initial, next-to-last, final = 
        -2669999.77849     -2669999.77876     -2669999.77876
  Force two-norm initial, final = 0.108914 0.00168863
  Force max component initial, final = 0.000353586 8.8742e-06
  Final line search alpha, max atom move = 0.00390625 3.46648e-08
  Iterations, force evaluations = 6 27

MPI task timing breakdown:
Section |  min time  |  avg time  |  max time  |%varavg| %total
---------------------------------------------------------------
Pair    | 1.646      | 1.6558     | 1.6666     |   0.6 | 96.22
Neigh   | 0          | 0          | 0          |   0.0 |  0.00
Comm    | 0.01894    | 0.029552   | 0.039222   |   4.2 |  1.72
Output  | 0.0026789  | 0.0026933  | 0.0027912  |   0.1 |  0.16
Modify  | 0          | 0          | 0          |   0.0 |  0.00
Other   |            | 0.03277    |            |       |  1.90

Nlocal:    37500 ave 37529 max 37479 min
Histogram: 2 1 2 0 0 0 0 0 1 2
Nghost:    22594 ave 22615 max 22565 min
Histogram: 1 2 0 0 0 0 0 2 1 2
Neighs:    1.2e+06 ave 1.20286e+06 max 1.1963e+06 min
Histogram: 1 1 0 0 2 0 0 2 0 2

Total # of neighbors = 9600000
Ave neighs/atom = 32
Neighbor list builds = 0
Dangerous builds = 0
OMP_NUM_THREADS environment is not set. Defaulting to 1 thread. (../comm.cpp:93)
  using 1 OpenMP thread(s) per MPI task
Reading restart file ...
  restart file = 7 Aug 2019, LAMMPS = 7 Aug 2019
  restoring atom style atomic from restart
  triclinic box = (4.42463e-06 3.68719e-06 3.68719e-06) to (189.912 158.26 158.26) with tilt (0 0 0)
  2 by 2 by 2 MPI processor grid
  pair style eam/fs stores no restart info
  300000 atoms
  read_restart CPU = 0.0222709 secs
Changing box ...
  triclinic box = (4.42463e-06 3.68719e-06 3.68719e-06) to (189.912 158.26 158.26) with tilt (0 -0.00015826 0)
Neighbor list info ...
  update every 1 steps, delay 0 steps, check yes
  max neighbors/atom: 2000, page size: 100000
  master list distance cutoff = 6.6
  ghost atom cutoff = 6.6
  1 neighbor lists, perpetual/occasional/extra = 1 0 0
  (1) pair eam/fs, perpetual
      attributes: half, newton on
      pair build: half/nsq/newton
      stencil: none
      bin: none
Setting up cg style minimization ...
  Unit style    : metal
  Current step  : 100
Per MPI rank memory allocation (min/avg/max) = 21.15 | 21.15 | 21.15 Mbytes
Step Temp PotEng Press Pxx Pyy Pzz Pxy Pxz Pyz Lx Ly Lz Volume 
     100            0   -2669999.8 0.00026447512 0.00026297966 0.00026660841 0.00026383727 3.3908379e-07    1.6106347 -4.5300706e-08    189.91199    158.25999    158.25999    4756578.5 
     101            0   -2669999.8 2.4904693e-05 2.3223009e-05 2.6558284e-05 2.4932784e-05 -5.2235878e-09    1.6106345 -1.1770171e-08    189.91199    158.25999    158.25999    4756578.5 
     102            0   -2669999.8 7.4600622e-06 5.8461252e-06 9.066643e-06 7.4674184e-06 -1.5221503e-08    1.6106345 -7.282705e-09    189.91199    158.25999    158.25999    4756578.5 
     103            0   -2669999.8 5.1978917e-06 3.591763e-06 6.7960521e-06 5.2058601e-06 -1.8978294e-10    1.6106345 -7.4529342e-10    189.91199    158.25999    158.25999    4756578.5 
     104            0   -2669999.8 4.6900463e-06 3.0866059e-06 6.2881139e-06 4.6954191e-06 3.645931e-10    1.6106345 5.4864636e-10    189.91199    158.25999    158.25999    4756578.5 
     105            0   -2669999.8 4.5325517e-06 2.9290008e-06 6.1306124e-06 4.5380417e-06 -6.7205218e-11    1.6106345 6.0224779e-10    189.91199    158.25999    158.25999    4756578.5 
     106            0   -2669999.8 4.5325517e-06 2.9290008e-06 6.1306124e-06 4.5380417e-06 -6.7205218e-11    1.6106345 6.0224779e-10    189.91199    158.25999    158.25999    4756578.5 
Loop time of 1.72145 on 8 procs for 6 steps with 300000 atoms

99.4% CPU use with 8 MPI tasks x 1 OpenMP threads

Minimization stats:
  Stopping criterion = linesearch alpha is zero
  Energy initial, next-to-last, final = 
        -2669999.77849     -2669999.77876     -2669999.77876
  Force two-norm initial, final = 0.108914 0.00168863
  Force max component initial, final = 0.000353587 8.8738e-06
  Final line search alpha, max atom move = 0.00390625 3.46633e-08
  Iterations, force evaluations = 6 27

MPI task timing breakdown:
Section |  min time  |  avg time  |  max time  |%varavg| %total
---------------------------------------------------------------
Pair    | 1.6461     | 1.656      | 1.6672     |   0.6 | 96.20
Neigh   | 0          | 0          | 0          |   0.0 |  0.00
Comm    | 0.019176   | 0.030207   | 0.040098   |   4.6 |  1.75
Output  | 0.0026641  | 0.0026734  | 0.0027323  |   0.0 |  0.16
Modify  | 0          | 0          | 0          |   0.0 |  0.00
Other   |            | 0.03261    |            |       |  1.89

Nlocal:    37500 ave 37529 max 37479 min
Histogram: 2 1 2 0 0 0 0 0 1 2
Nghost:    22594 ave 22615 max 22565 min
Histogram: 1 2 0 0 0 0 0 2 1 2
Neighs:    1.2e+06 ave 1.20286e+06 max 1.1963e+06 min
Histogram: 1 1 0 0 2 0 0 2 0 2

Total # of neighbors = 9600000
Ave neighs/atom = 32
Neighbor list builds = 0
Dangerous builds = 0
OMP_NUM_THREADS environment is not set. Defaulting to 1 thread. (../comm.cpp:93)
  using 1 OpenMP thread(s) per MPI task
Reading restart file ...
  restart file = 7 Aug 2019, LAMMPS = 7 Aug 2019
  restoring atom style atomic from restart
  triclinic box = (4.42463e-06 3.68719e-06 3.68719e-06) to (189.912 158.26 158.26) with tilt (0 0 0)
  2 by 2 by 2 MPI processor grid
  pair style eam/fs stores no restart info
  300000 atoms
  read_restart CPU = 0.0221241 secs
Changing box ...
  triclinic box = (4.42463e-06 3.68719e-06 3.68719e-06) to (189.912 158.26 158.26) with tilt (0 0.00015826 0)
Neighbor list info ...
  update every 1 steps, delay 0 steps, check yes
  max neighbors/atom: 2000, page size: 100000
  master list distance cutoff = 6.6
  ghost atom cutoff = 6.6
  1 neighbor lists, perpetual/occasional/extra = 1 0 0
  (1) pair eam/fs, perpetual
      attributes: half, newton on
      pair build: half/nsq/newton
      stencil: none
      bin: none
Setting up cg style minimization ...
  Unit style    : metal
  Current step  : 100
Per MPI rank memory allocation (min/avg/max) = 21.15 | 21.15 | 21.15 Mbytes
Step Temp PotEng Press Pxx Pyy Pzz Pxy Pxz Pyz Lx Ly Lz Volume 
     100            0   -2669999.8 0.00026447511 0.0002629793 0.00026660826 0.00026383776 3.3966992e-07   -1.6106344 -4.5365025e-08    189.91199    158.25999    158.25999    4756578.5 
     101            0   -2669999.8 2.4904734e-05 2.3223408e-05 2.6557812e-05 2.4932982e-05 -5.8770293e-09   -1.6106346 -1.1354513e-08    189.91199    158.25999    158.25999    4756578.5 
     102            0   -2669999.8 7.4605275e-06 5.8469569e-06 9.0667472e-06 7.4678785e-06 -1.4994116e-08   -1.6106345 -7.206113e-09    189.91199    158.25999    158.25999    4756578.5 
     103            0   -2669999.8 5.198304e-06 3.5922957e-06 6.7964491e-06 5.2061673e-06 4.3708283e-10   -1.6106345 -1.3044274e-09    189.91199    158.25999    158.25999    4756578.5 
     104            0   -2669999.8 4.6903498e-06 3.0869291e-06 6.2879386e-06 4.6961819e-06 -1.2066304e-10   -1.6106345 5.7919506e-10    189.91199    158.25999    158.25999    4756578.5 
     105            0   -2669999.8 4.5324723e-06 2.9288173e-06 6.1301877e-06 4.5384118e-06 6.7094167e-10   -1.6106345 1.2879085e-10    189.91199    158.25999    158.25999    4756578.5 
     106            0   -2669999.8 4.473083e-06 2.8687669e-06 6.0711002e-06 4.479382e-06 1.7297206e-10   -1.6106345 4.4197962e-10    189.91199    158.25999    158.25999    4756578.5 
     107            0   -2669999.8 4.473083e-06 2.8687669e-06 6.0711002e-06 4.479382e-06 1.7297206e-10   -1.6106345 4.4197962e-10    189.91199    158.25999    158.25999    4756578.5 
Loop time of 1.72829 on 8 procs for 7 steps with 300000 atoms

99.4% CPU use with 8 MPI tasks x 1 OpenMP threads

Minimization stats:
  Stopping criterion = linesearch alpha is zero
  Energy initial, next-to-last, final = 
        -2669999.77849     -2669999.77876     -2669999.77876
  Force two-norm initial, final = 0.108914 0.0010854
  Force max component initial, final = 0.000353586 5.54424e-06
  Final line search alpha, max atom move = 0.0078125 4.33144e-08
  Iterations, force evaluations = 7 27

MPI task timing breakdown:
Section |  min time  |  avg time  |  max time  |%varavg| %total
---------------------------------------------------------------
Pair    | 1.6492     | 1.6608     | 1.6722     |   0.7 | 96.10
Neigh   | 0          | 0          | 0          |   0.0 |  0.00
Comm    | 0.018975   | 0.030087   | 0.041612   |   4.8 |  1.74
Output  | 0.0032017  | 0.0032198  | 0.0033271  |   0.1 |  0.19
Modify  | 0          | 0          | 0          |   0.0 |  0.00
Other   |            | 0.03414    |            |       |  1.98

Nlocal:    37500 ave 37529 max 37479 min
Histogram: 2 1 2 0 0 0 0 0 1 2
Nghost:    22594 ave 22615 max 22565 min
Histogram: 1 2 0 0 0 0 0 2 1 2
Neighs:    1.2e+06 ave 1.20286e+06 max 1.1963e+06 min
Histogram: 1 1 0 0 2 0 0 2 0 2

Total # of neighbors = 9600000
Ave neighs/atom = 32
Neighbor list builds = 0
Dangerous builds = 0
OMP_NUM_THREADS environment is not set. Defaulting to 1 thread. (../comm.cpp:93)
  using 1 OpenMP thread(s) per MPI task
Reading restart file ...
  restart file = 7 Aug 2019, LAMMPS = 7 Aug 2019
  restoring atom style atomic from restart
  triclinic box = (4.42463e-06 3.68719e-06 3.68719e-06) to (189.912 158.26 158.26) with tilt (0 0 0)
  2 by 2 by 2 MPI processor grid
  pair style eam/fs stores no restart info
  300000 atoms
  read_restart CPU = 0.0223281 secs
Changing box ...
  triclinic box = (4.42463e-06 3.68719e-06 3.68719e-06) to (189.912 158.26 158.26) with tilt (-0.00015826 0 0)
Neighbor list info ...
  update every 1 steps, delay 0 steps, check yes
  max neighbors/atom: 2000, page size: 100000
  master list distance cutoff = 6.6
  ghost atom cutoff = 6.6
  1 neighbor lists, perpetual/occasional/extra = 1 0 0
  (1) pair eam/fs, perpetual
      attributes: half, newton on
      pair build: half/nsq/newton
      stencil: none
      bin: none
Setting up cg style minimization ...
  Unit style    : metal
  Current step  : 100
Per MPI rank memory allocation (min/avg/max) = 21.15 | 21.15 | 21.15 Mbytes
Step Temp PotEng Press Pxx Pyy Pzz Pxy Pxz Pyz Lx Ly Lz Volume 
     100            0   -2669999.8 0.00026447494 0.00026297865 0.00026502763 0.00026541854    1.6106349 1.4425254e-07 -4.4676172e-08    189.91199    158.25999    158.25999    4756578.5 
     101            0   -2669999.8 2.4904591e-05 2.3222815e-05  2.49769e-05 2.6514059e-05    1.6106345 -7.856021e-08 -1.1423461e-08    189.91199    158.25999    158.25999    4756578.5 
     102            0   -2669999.8 7.4603394e-06 5.846835e-06 7.4854662e-06 9.0487169e-06    1.6106345 -9.3797232e-10 -7.7301988e-09    189.91199    158.25999    158.25999    4756578.5 
     103            0   -2669999.8 5.1979825e-06 3.5919563e-06 5.2150002e-06 6.786991e-06    1.6106345 1.7591492e-09 -1.0791128e-10    189.91199    158.25999    158.25999    4756578.5 
     104            0   -2669999.8 4.690269e-06 3.0866861e-06 4.7067988e-06 6.2773221e-06    1.6106345 -6.5036366e-10 5.3390334e-10    189.91199    158.25999    158.25999    4756578.5 
     105            0   -2669999.8 4.5321975e-06 2.928291e-06 4.5490753e-06 6.1192261e-06    1.6106345 -1.0776481e-09 5.1766686e-10    189.91199    158.25999    158.25999    4756578.5 
     106            0   -2669999.8 4.4728747e-06 2.8688695e-06 4.4902175e-06 6.0595369e-06    1.6106345 -2.1281174e-10 -7.7410455e-11    189.91199    158.25999    158.25999    4756578.5 
     107            0   -2669999.8 4.4728747e-06 2.8688695e-06 4.4902175e-06 6.0595369e-06    1.6106345 -2.1281174e-10 -7.7410455e-11    189.91199    158.25999    158.25999    4756578.5 
Loop time of 1.72352 on 8 procs for 7 steps with 300000 atoms

99.3% CPU use with 8 MPI tasks x 1 OpenMP threads

Minimization stats:
  Stopping criterion = linesearch alpha is zero
  Energy initial, next-to-last, final = 
        -2669999.77849     -2669999.77876     -2669999.77876
  Force two-norm initial, final = 0.108914 0.0010854
  Force max component initial, final = 0.000353586 5.54418e-06
  Final line search alpha, max atom move = 0.0078125 4.33139e-08
  Iterations, force evaluations = 7 27

MPI task timing breakdown:
Section |  min time  |  avg time  |  max time  |%varavg| %total
---------------------------------------------------------------
Pair    | 1.6437     | 1.6564     | 1.6667     |   0.6 | 96.10
Neigh   | 0          | 0          | 0          |   0.0 |  0.00
Comm    | 0.019825   | 0.029899   | 0.04265    |   4.6 |  1.73
Output  | 0.0031774  | 0.0031907  | 0.003264   |   0.0 |  0.19
Modify  | 0          | 0          | 0          |   0.0 |  0.00
Other   |            | 0.03405    |            |       |  1.98

Nlocal:    37500 ave 37529 max 37479 min
Histogram: 2 1 2 0 0 0 0 0 1 2
Nghost:    22594 ave 22615 max 22565 min
Histogram: 1 2 0 0 0 0 0 2 1 2
Neighs:    1.2e+06 ave 1.20286e+06 max 1.1963e+06 min
Histogram: 1 1 0 0 2 0 0 2 0 2

Total # of neighbors = 9600000
Ave neighs/atom = 32
Neighbor list builds = 0
Dangerous builds = 0
OMP_NUM_THREADS environment is not set. Defaulting to 1 thread. (../comm.cpp:93)
  using 1 OpenMP thread(s) per MPI task
Reading restart file ...
  restart file = 7 Aug 2019, LAMMPS = 7 Aug 2019
  restoring atom style atomic from restart
  triclinic box = (4.42463e-06 3.68719e-06 3.68719e-06) to (189.912 158.26 158.26) with tilt (0 0 0)
  2 by 2 by 2 MPI processor grid
  pair style eam/fs stores no restart info
  300000 atoms
  read_restart CPU = 0.0220261 secs
Changing box ...
  triclinic box = (4.42463e-06 3.68719e-06 3.68719e-06) to (189.912 158.26 158.26) with tilt (0.00015826 0 0)
Neighbor list info ...
  update every 1 steps, delay 0 steps, check yes
  max neighbors/atom: 2000, page size: 100000
  master list distance cutoff = 6.6
  ghost atom cutoff = 6.6
  1 neighbor lists, perpetual/occasional/extra = 1 0 0
  (1) pair eam/fs, perpetual
      attributes: half, newton on
      pair build: half/nsq/newton
      stencil: none
      bin: none
Setting up cg style minimization ...
  Unit style    : metal
  Current step  : 100
Per MPI rank memory allocation (min/avg/max) = 21.15 | 21.15 | 21.15 Mbytes
Step Temp PotEng Press Pxx Pyy Pzz Pxy Pxz Pyz Lx Ly Lz Volume 
     100            0   -2669999.8 0.00026447459 0.00026297872 0.00026502697 0.00026541807   -1.6106342 1.4424688e-07 -4.58014e-08    189.91199    158.25999    158.25999    4756578.5 
     101            0   -2669999.8 2.4905145e-05 2.3223827e-05 2.4977395e-05 2.6514213e-05   -1.6106345 -7.8259615e-08 -1.1837677e-08    189.91199    158.25999    158.25999    4756578.5 
     102            0   -2669999.8 7.460303e-06 5.846396e-06   7.4859e-06 9.048613e-06   -1.6106346 -9.6550061e-10 -7.3978872e-09    189.91199    158.25999    158.25999    4756578.5 
     103            0   -2669999.8 5.1980911e-06 3.5923288e-06 5.2151667e-06 6.7867778e-06   -1.6106345 2.1925559e-09 -8.8899484e-10    189.91199    158.25999    158.25999    4756578.5 
     104            0   -2669999.8 4.6902999e-06 3.086476e-06 4.7070112e-06 6.2774124e-06   -1.6106345 -4.0065128e-10 5.5009673e-10    189.91199    158.25999    158.25999    4756578.5 
     105            0   -2669999.8 4.5325369e-06 2.9297272e-06  4.54881e-06 6.1190734e-06   -1.6106345 -1.1930171e-09 4.020825e-10    189.91199    158.25999    158.25999    4756578.5 
     106            0   -2669999.8 4.5325369e-06 2.9297272e-06  4.54881e-06 6.1190734e-06   -1.6106345 -1.1930171e-09 4.020825e-10    189.91199    158.25999    158.25999    4756578.5 
Loop time of 1.72012 on 8 procs for 6 steps with 300000 atoms

99.6% CPU use with 8 MPI tasks x 1 OpenMP threads

Minimization stats:
  Stopping criterion = linesearch alpha is zero
  Energy initial, next-to-last, final = 
        -2669999.77849     -2669999.77876     -2669999.77876
  Force two-norm initial, final = 0.108914 0.00168863
  Force max component initial, final = 0.000353587 8.87411e-06
  Final line search alpha, max atom move = 0.00390625 3.46645e-08
  Iterations, force evaluations = 6 27

MPI task timing breakdown:
Section |  min time  |  avg time  |  max time  |%varavg| %total
---------------------------------------------------------------
Pair    | 1.6442     | 1.6552     | 1.6661     |   0.6 | 96.23
Neigh   | 0          | 0          | 0          |   0.0 |  0.00
Comm    | 0.019143   | 0.029748   | 0.040869   |   4.4 |  1.73
Output  | 0.0026591  | 0.0026751  | 0.0027735  |   0.1 |  0.16
Modify  | 0          | 0          | 0          |   0.0 |  0.00
Other   |            | 0.03248    |            |       |  1.89

Nlocal:    37500 ave 37529 max 37479 min
Histogram: 2 1 2 0 0 0 0 0 1 2
Nghost:    22594 ave 22615 max 22565 min
Histogram: 1 2 0 0 0 0 0 2 1 2
Neighs:    1.2e+06 ave 1.20286e+06 max 1.1963e+06 min
Histogram: 1 1 0 0 2 0 0 2 0 2

Total # of neighbors = 9600000
Ave neighs/atom = 32
Neighbor list builds = 0
Dangerous builds = 0
=========================================
Components of the Elastic Constant Tensor
=========================================
Elastic Constant C11all = 522.096626586335 GPa
Elastic Constant C22all = 522.096626495441 GPa
Elastic Constant C33all = 522.096626471976 GPa
Elastic Constant C12all = 203.994759009276 GPa
Elastic Constant C13all = 203.994759060228 GPa
Elastic Constant C23all = 203.994759015789 GPa
Elastic Constant C44all = 161.06345409879 GPa
Elastic Constant C55all = 161.063454089571 GPa
Elastic Constant C66all = 161.063454091767 GPa
Elastic Constant C14all = -1.48771088313647e-06 GPa
Elastic Constant C15all = 1.46258965161191e-06 GPa
Elastic Constant C16all = -1.47066460915694e-06 GPa
Elastic Constant C24all = -1.44735627739974e-06 GPa
Elastic Constant C25all = 1.46572316293768e-06 GPa
Elastic Constant C26all = -1.47388222332725e-06 GPa
Elastic Constant C34all = -1.48215627071161e-06 GPa
Elastic Constant C35all = 1.42084034720382e-06 GPa
Elastic Constant C36all = -1.48261221136749e-06 GPa
Elastic Constant C45all = 2.6350763953345e-09 GPa
Elastic Constant C46all = -1.93119268246631e-08 GPa
Elastic Constant C56all = 1.85007014439198e-08 GPa
=========================================
Average properties for a cubic crystal
=========================================
Bulk Modulus = 310.02871485826 GPa
Shear Modulus 1 = 161.063454093376 GPa
Shear Modulus 2 = 159.050933744743 GPa
Poisson Ratio = 0.2809491519789
Total wall time: 0:01:50
