ITEM: TIMESTEP
0
ITEM: NUMBER OF ATOMS
8
ITEM: BOX BOUNDS pp pp pp
0.0000000000000000e+00 2.2015999999999998e+01
0.0000000000000000e+00 2.7520000000000000e+01
0.0000000000000000e+00 2.7520000000000000e+01
ITEM: ATOMS id type mass x y z fx fy fz 
1 1                 58.7                    0                    0                    0  1.7798262863522e-15                    0                    0 
2 1                 58.7                2.752                    0                    0 -9.71445146547012e-17                    0                    0 
3 1                 58.7                5.504                    0                    0 1.60006556615411e-15                    0                    0 
4 1                 58.7                8.256                    0                    0 -3.42141679571251e-15                    0                    0 
5 1                 58.7               11.008                    0                    0 3.38216867706853e-15                    0                    0 
6 1                 58.7                13.76                    0                    0 8.67361737988404e-19                    0                    0 
7 1                 58.7               16.512                    0                    0 -3.31451446150544e-15                    0                    0 
8 1                 58.7               19.264                    0                    0 6.81963166493382e-17                    0                    0 
