LAMMPS data file via write_data, version 7 Aug 2019, timestep = 32

8 atoms
2 atom types

0.0000000000000000e+00 4.2192115799999996e+00 xlo xhi
0.0000000000000000e+00 4.2107900000000003e+00 ylo yhi
0.0000000000000000e+00 4.2107900000000003e+00 zlo zhi

Masses

1 24.3
2 16

Pair Coeffs # buck/coul/long

1 0 0.1 0
2 22764 0.149 27.88

Atoms # charge

1 1 2.0000000000000000e+00 3.1031553477049774e-10 4.2107899993556961e+00 4.2107899991054651e+00 0 -1 -1
7 2 -2.0000000000000000e+00 2.3145907921012472e-09 4.2107899984416619e+00 2.1053949989366818e+00 0 -1 0
6 2 -2.0000000000000000e+00 3.5353441882435053e-09 2.1053949996265229e+00 4.2107899990965869e+00 0 0 -1
8 2 -2.0000000000000000e+00 2.1096057882014905e+00 2.1053949985650626e+00 2.1053949996091372e+00 0 0 0
2 1 2.0000000000000000e+00 2.1096057936239281e+00 2.1053949992785554e+00 4.2107899994222384e+00 0 0 -1
3 1 2.0000000000000000e+00 2.1096057924722516e+00 4.2107899985376944e+00 2.1053949992731189e+00 0 -1 0
5 2 -2.0000000000000000e+00 2.1096057904428958e+00 4.2107899992499256e+00 4.2107899989899895e+00 0 -1 -1
4 1 2.0000000000000000e+00 4.2192115781610049e+00 2.1053949987171818e+00 2.1053949995647265e+00 -1 0 0

Velocities

1 0.0000000000000000e+00 0.0000000000000000e+00 0.0000000000000000e+00
7 0.0000000000000000e+00 0.0000000000000000e+00 0.0000000000000000e+00
6 0.0000000000000000e+00 0.0000000000000000e+00 0.0000000000000000e+00
8 0.0000000000000000e+00 0.0000000000000000e+00 0.0000000000000000e+00
2 0.0000000000000000e+00 0.0000000000000000e+00 0.0000000000000000e+00
3 0.0000000000000000e+00 0.0000000000000000e+00 0.0000000000000000e+00
5 0.0000000000000000e+00 0.0000000000000000e+00 0.0000000000000000e+00
4 0.0000000000000000e+00 0.0000000000000000e+00 0.0000000000000000e+00
