ITEM: TIMESTEP
0
ITEM: NUMBER OF ATOMS
8
ITEM: BOX BOUNDS pp pp pp
0 22.016
0 27.52
0 27.52
ITEM: ATOMS id type mass x y z fx fy fz 
1 1         58.7                 22.011                      0                      0     0.0187287167536862                      0                      0 
2 1         58.7                  2.752                      0                      0   -0.00943870232516959                      0                      0 
3 1         58.7                  5.504                      0                      0   0.000169235988784457                      0                      0 
4 1         58.7                  8.256                      0                      0   3.54467023510805e-06                      0                      0 
5 1         58.7                 11.008                      0                      0   3.38574654423773e-15                      0                      0 
6 1         58.7                  13.76                      0                      0   3.56990386242775e-06                      0                      0 
7 1         58.7                 16.512                      0                      0   0.000170388964929066                      0                      0 
8 1         58.7                 19.264                      0                      0    -0.0096367539563311                      0                      0 
