
  ___ ___ ___ _ _ _  
 |   |   |_  | | | | 
 | | | | | . | | | | 
 |__ |  _|___|_____|  19.8.1
 |___|_|             

User:   ericlin@hebbe07-9
Date:   Mon Feb  3 10:25:33 2020
Arch:   x86_64
Pid:    28253
Python: 3.7.2
gpaw:   /apps/Hebbe7/software/MPI/intel/2019.1.144-GCC-8.2.0-2.31.1/impi/2018.4.274/GPAW/19.8.1-Python-3.7.2/lib/python3.7/site-packages/gpaw
_gpaw:  /apps/Hebbe7/software/MPI/intel/2019.1.144-GCC-8.2.0-2.31.1/impi/2018.4.274/GPAW/19.8.1-Python-3.7.2/bin/
        gpaw-python
ase:    /apps/Hebbe7/software/MPI/intel/2019.1.144-GCC-8.2.0-2.31.1/impi/2018.4.274/ASE/3.18.0-Python-3.7.2/lib/python3.7/site-packages/ase (version 3.18.0)
numpy:  /apps/Hebbe7/software/MPI/intel/2019.1.144-GCC-8.2.0-2.31.1/impi/2018.4.274/SciPy-bundle/2019.03/lib/python3.7/site-packages/numpy (version 1.16.2)
scipy:  /apps/Hebbe7/software/MPI/intel/2019.1.144-GCC-8.2.0-2.31.1/impi/2018.4.274/SciPy-bundle/2019.03/lib/python3.7/site-packages/scipy (version 1.2.1)
libxc:  4.3.4
units:  Angstrom and eV
cores:  1

Input parameters:
  basis: dzp
  h: 0.25
  mode: lcao
  nbands: 10
  occupations: {name: fermi-dirac,
                width: 0.05}
  setups: {Na: 1}

System changes: positions, numbers, cell, pbc, initial_charges, initial_magmoms 

Initialize ...

Na-setup:
  name: Sodium
  id: fa5c50181d04022fed15b2593599c257
  Z: 11
  valence: 1
  core: 10
  charge: 0.0
  file: /apps/Common/Core/GPAW-setups/0.9.20000/Na.1.LDA.gz
  compensation charges: gauss, rc=0.43, lmax=2
  cutoffs: 2.36(filt), 3.60(core),
  valence states:
                energy  radius
    3s(1.00)    -2.819   1.349
    3p(0.00)    -0.774   1.349
    *s          24.392   1.349

  LCAO basis set for Na:
    Name: 1.dzp
    File: /apps/Common/Core/GPAW-setups/0.9.20000/Na.1.dzp.basis.gz
    Number of radial functions: 3
    Number of spherical harmonics: 5
      l=0, rc=11.7656 Bohr: 3s-sz confined orbital
      l=0, rc=7.1094 Bohr: 3s-dz split-valence wave
      l=1, rc=11.7656 Bohr: p-type Gaussian polarization

Reference energy: -26392.251304

Spin-paired calculation

Occupation numbers:
  Fermi-Dirac: width=0.0500 eV

Convergence criteria:
  Maximum total energy change: 0.0005 eV / electron
  Maximum integral of absolute density change: 0.0001 electrons
  Maximum integral of absolute eigenstate change: 4e-08 eV^2
  Maximum number of iterations: 333

Symmetries present (total): 1

  ( 1  0  0)
  ( 0  1  0)
  ( 0  0  1)

1 k-point (Gamma)
1 k-point in the irreducible part of the Brillouin zone
       k-points in crystal coordinates                weights
   0:     0.00000000    0.00000000    0.00000000          1/1

Wave functions: LCAO
  Diagonalizer: Serial LAPACK
  Atomic Correction: dense with blas
  Datatype: float
 

Eigensolver
   LCAO using direct dense diagonalizer 

Densities:
  Coarse grid: 80*80*80 grid
  Fine grid: 160*160*160 grid
  Total Charge: 0.000000 

Density mixing:
  Method: separate
  Backend: pulay
  Linear mixing parameter: 0.25
  Mixing with 3 old densities
  No damping of long wave oscillations 

Hamiltonian:
  XC and Coulomb potentials evaluated on a 160*160*160 grid
  Using the LDA Exchange-Correlation functional
  Interpolation: tri-quintic (5. degree polynomial)
  Poisson solver: FastPoissonSolver using
    6*3+1=19 point O(h^6) finite-difference Laplacian stencil;
    FFT axes: [];
    FST axes: [0, 1, 2].
 

Memory estimate:
  Process memory now: 457.49 MiB
  Calculator: 218.95 MiB
    Density: 140.04 MiB
      Arrays: 99.53 MiB
      Localized functions: 17.94 MiB
      Mixer: 22.57 MiB
    Hamiltonian: 66.39 MiB
      Arrays: 65.10 MiB
      XC: 0.00 MiB
      Poisson: 0.00 MiB
      vbar: 1.29 MiB
    Wavefunctions: 12.52 MiB
      C [qnM]: 0.00 MiB
      S, T [2 x qmm]: 0.01 MiB
      P [aqMi]: 0.00 MiB
      BasisFunctions: 12.50 MiB
      Eigensolver: 0.00 MiB

Total number of cores used: 1

Number of atoms: 6
Number of atomic orbitals: 30
Number of bands in calculation: 10
Bands to converge: occupied states only
Number of valence electrons: 6

... initialized

Initializing position-dependent things.

Density initialized from atomic densities
             .------------------------------------------------.  
            /|                                                |  
           / |                                                |  
          /  |                                                |  
         /   |                                                |  
        /    |                                                |  
       /     |                                                |  
      /      |                                                |  
     /       |                                                |  
    /        |                                                |  
   /         |                                                |  
  /          |                                                |  
 *           |                                                |  
 |           |                                                |  
 |           |                                                |  
 |           |                                                |  
 |           |                                                |  
 |           |                 Na                             |  
 |           |                Na   Na                         |  
 |           |              Na   Na                           |  
 |           |                 Na                             |  
 |           |                                                |  
 |           |                                                |  
 |           |                                                |  
 |           |                                                |  
 |           .------------------------------------------------.  
 |          /                                                /   
 |         /                                                /    
 |        /                                                /     
 |       /                                                /      
 |      /                                                /       
 |     /                                                /        
 |    /                                                /         
 |   /                                                /          
 |  /                                                /           
 | /                                                /            
 |/                                                /             
 *------------------------------------------------*              

Positions:
   0 Na    11.000000   11.000000   10.000000    ( 0.0000,  0.0000,  0.0000)
   1 Na    11.000000    9.000000   10.000000    ( 0.0000,  0.0000,  0.0000)
   2 Na     9.000000    9.000000   10.000000    ( 0.0000,  0.0000,  0.0000)
   3 Na     9.000000   11.000000   10.000000    ( 0.0000,  0.0000,  0.0000)
   4 Na    10.000000   10.000000   11.000000    ( 0.0000,  0.0000,  0.0000)
   5 Na    10.000000   10.000000    9.000000    ( 0.0000,  0.0000,  0.0000)

Unit cell:
           periodic     x           y           z      points  spacing
  1. axis:    no    20.000000    0.000000    0.000000    80     0.2500
  2. axis:    no     0.000000   20.000000    0.000000    80     0.2500
  3. axis:    no     0.000000    0.000000   20.000000    80     0.2500

  Lengths:  20.000000  20.000000  20.000000
  Angles:   90.000000  90.000000  90.000000

Effective grid spacing dv^(1/3) = 0.2500

                     log10-error:    total        iterations:
           time      wfs    density  energy       fermi  poisson
iter:   1  10:25:41          +inf    22.074449    4      1      
iter:   2  10:25:42         -0.75    22.498686    4      1      
iter:   3  10:25:44         -0.93    22.856081    4      1      
iter:   4  10:25:45         -1.20    22.972627    4      1      
iter:   5  10:25:47         -2.23    22.973219    3      1      
iter:   6  10:25:48         -2.48    22.973271    3      1      
iter:   7  10:25:50         -2.70    22.973298    3      1      
iter:   8  10:25:51         -3.20    22.973303    2      1      
iter:   9  10:25:53         -3.60    22.973306    2      1      
iter:  10  10:25:54         -3.84    22.973306    2      1      
iter:  11  10:25:56         -4.24    22.973307    2      1      

Converged after 11 iterations.

Dipole moment: (0.000000, 0.000000, 0.000000) |e|*Ang

Energy contributions relative to reference atoms: (reference = -26392.251304)

Kinetic:       +157.335807
Potential:     -107.602387
External:        +0.000000
XC:             -28.881020
Entropy (-ST):   -0.175311
Local:           +2.208563
--------------------------
Free energy:    +22.885651
Extrapolated:   +22.973307

Fermi level: -3.82941

 Band  Eigenvalues  Occupancy
    0     -6.06150    2.00000
    1     -3.89139    1.55094
    2     -3.89139    1.55094
    3     -3.81919    0.89812
    4     -0.47213    0.00000
    5     -0.44990    0.00000
    6     -0.21754    0.00000
    7      0.55296    0.00000
    8      1.44487    0.00000
    9      1.44487    0.00000

Gap: 0.072 eV
Transition (v -> c):
  (s=0, k=0, n=2, [0.00, 0.00, 0.00]) -> (s=0, k=0, n=3, [0.00, 0.00, 0.00])

Forces in eV/Ang:
  0 Na    9.24277    9.24277    0.00000
  1 Na    9.24277   -9.24277    0.00000
  2 Na   -9.24277   -9.24277    0.00000
  3 Na   -9.24277    9.24277    0.00000
  4 Na   -0.00000   -0.00000   13.99085
  5 Na    0.00000    0.00000  -13.99085

System changes: positions 

Initializing position-dependent things.

Density initialized from wave functions
             .------------------------------------------------.  
            /|                                                |  
           / |                                                |  
          /  |                                                |  
         /   |                                                |  
        /    |                                                |  
       /     |                                                |  
      /      |                                                |  
     /       |                                                |  
    /        |                                                |  
   /         |                                                |  
  /          |                                                |  
 *           |                                                |  
 |           |                                                |  
 |           |                                                |  
 |           |                                                |  
 |           |                                                |  
 |           |                 Na                             |  
 |           |               Na    Na                         |  
 |           |              Na    Na                          |  
 |           |                  Na                            |  
 |           |                                                |  
 |           |                                                |  
 |           |                                                |  
 |           |                                                |  
 |           .------------------------------------------------.  
 |          /                                                /   
 |         /                                                /    
 |        /                                                /     
 |       /                                                /      
 |      /                                                /       
 |     /                                                /        
 |    /                                                /         
 |   /                                                /          
 |  /                                                /           
 | /                                                /            
 |/                                                /             
 *------------------------------------------------*              

Positions:
   0 Na    11.112765   11.112765   10.000000    ( 0.0000,  0.0000,  0.0000)
   1 Na    11.112765    8.887235   10.000000    ( 0.0000,  0.0000,  0.0000)
   2 Na     8.887235    8.887235   10.000000    ( 0.0000,  0.0000,  0.0000)
   3 Na     8.887235   11.112765   10.000000    ( 0.0000,  0.0000,  0.0000)
   4 Na    10.000000   10.000000   11.170693    ( 0.0000,  0.0000,  0.0000)
   5 Na    10.000000   10.000000    8.829307    ( 0.0000,  0.0000,  0.0000)

Unit cell:
           periodic     x           y           z      points  spacing
  1. axis:    no    20.000000    0.000000    0.000000    80     0.2500
  2. axis:    no     0.000000   20.000000    0.000000    80     0.2500
  3. axis:    no     0.000000    0.000000   20.000000    80     0.2500

  Lengths:  20.000000  20.000000  20.000000
  Angles:   90.000000  90.000000  90.000000

Effective grid spacing dv^(1/3) = 0.2500

                     log10-error:    total        iterations:
           time      wfs    density  energy       fermi  poisson
iter:   1  10:25:58          +inf    11.690253    3      1      
iter:   2  10:25:59         -0.65    12.048196    32     1      
iter:   3  10:26:01         -1.01    12.147018    32     1      
iter:   4  10:26:02         -1.34    12.133823    4      1      
iter:   5  10:26:04         -1.22    12.151711    4      1      
iter:   6  10:26:05         -1.95    12.152962    4      1      
iter:   7  10:26:07         -2.34    12.153059    3      1      
iter:   8  10:26:08         -2.98    12.153076    3      1      
iter:   9  10:26:10         -3.41    12.153097    2      1      
iter:  10  10:26:11         -3.78    12.153100    2      1      
iter:  11  10:26:13         -3.93    12.153099    2      1      
iter:  12  10:26:14         -4.25    12.153098    2      1      

Converged after 12 iterations.

Dipole moment: (0.000000, -0.000000, -0.000000) |e|*Ang

Energy contributions relative to reference atoms: (reference = -26392.251304)

Kinetic:       +140.684752
Potential:     -103.248119
External:        +0.000000
XC:             -25.968506
Entropy (-ST):   -0.163235
Local:           +0.766589
--------------------------
Free energy:    +12.071481
Extrapolated:   +12.153098

Fermi level: -3.52182

 Band  Eigenvalues  Occupancy
    0     -6.15561    2.00000
    1     -3.59467    1.62213
    2     -3.59467    1.62213
    3     -3.49689    0.75573
    4     -1.09768    0.00000
    5     -0.60421    0.00000
    6     -0.27933    0.00000
    7      1.21900    0.00000
    8      1.57256    0.00000
    9      1.57256    0.00000

Gap: 0.098 eV
Transition (v -> c):
  (s=0, k=0, n=2, [0.00, 0.00, 0.00]) -> (s=0, k=0, n=3, [0.00, 0.00, 0.00])

Forces in eV/Ang:
  0 Na    6.12825    6.12825    0.00000
  1 Na    6.12825   -6.12825   -0.00000
  2 Na   -6.12825   -6.12825    0.00000
  3 Na   -6.12825    6.12825    0.00000
  4 Na   -0.00000    0.00000    9.43824
  5 Na    0.00000   -0.00000   -9.43824

System changes: positions 

Initializing position-dependent things.

Density initialized from wave functions
             .------------------------------------------------.  
            /|                                                |  
           / |                                                |  
          /  |                                                |  
         /   |                                                |  
        /    |                                                |  
       /     |                                                |  
      /      |                                                |  
     /       |                                                |  
    /        |                                                |  
   /         |                                                |  
  /          |                                                |  
 *           |                                                |  
 |           |                                                |  
 |           |                                                |  
 |           |                                                |  
 |           |                                                |  
 |           |                 Na                             |  
 |           |               Na    Na                         |  
 |           |              Na    Na                          |  
 |           |                  Na                            |  
 |           |                                                |  
 |           |                                                |  
 |           |                                                |  
 |           |                                                |  
 |           .------------------------------------------------.  
 |          /                                                /   
 |         /                                                /    
 |        /                                                /     
 |       /                                                /      
 |      /                                                /       
 |     /                                                /        
 |    /                                                /         
 |   /                                                /          
 |  /                                                /           
 | /                                                /            
 |/                                                /             
 *------------------------------------------------*              

Positions:
   0 Na    11.204354   11.204354   10.000000    ( 0.0000,  0.0000,  0.0000)
   1 Na    11.204354    8.795646   10.000000    ( 0.0000,  0.0000,  0.0000)
   2 Na     8.795646    8.795646   10.000000    ( 0.0000,  0.0000,  0.0000)
   3 Na     8.795646   11.204354   10.000000    ( 0.0000,  0.0000,  0.0000)
   4 Na    10.000000   10.000000   11.310953    ( 0.0000,  0.0000,  0.0000)
   5 Na    10.000000   10.000000    8.689047    ( 0.0000,  0.0000,  0.0000)

Unit cell:
           periodic     x           y           z      points  spacing
  1. axis:    no    20.000000    0.000000    0.000000    80     0.2500
  2. axis:    no     0.000000   20.000000    0.000000    80     0.2500
  3. axis:    no     0.000000    0.000000   20.000000    80     0.2500

  Lengths:  20.000000  20.000000  20.000000
  Angles:   90.000000  90.000000  90.000000

Effective grid spacing dv^(1/3) = 0.2500

                     log10-error:    total        iterations:
           time      wfs    density  energy       fermi  poisson
iter:   1  10:26:16          +inf     6.006408    4      1      
iter:   2  10:26:18         -0.94     6.112897    6      1      
iter:   3  10:26:19         -1.28     6.148181    4      1      
iter:   4  10:26:21         -1.66     6.151628    3      1      
iter:   5  10:26:22         -1.93     6.153185    4      1      
iter:   6  10:26:24         -2.48     6.153448    3      1      
iter:   7  10:26:25         -3.48     6.153459    2      1      
iter:   8  10:26:27         -3.66     6.153461    2      1      
iter:   9  10:26:28         -4.21     6.153458    2      1      

Converged after 9 iterations.

Dipole moment: (-0.000000, -0.000000, -0.000000) |e|*Ang

Energy contributions relative to reference atoms: (reference = -26392.251304)

Kinetic:       +117.453599
Potential:      -88.822019
External:        +0.000000
XC:             -22.745726
Entropy (-ST):   -0.163087
Local:           +0.349148
--------------------------
Free energy:     +6.071914
Extrapolated:    +6.153458

Fermi level: -3.35204

 Band  Eigenvalues  Occupancy
    0     -6.08266    2.00000
    1     -3.42502    1.62289
    2     -3.42502    1.62289
    3     -3.32695    0.75421
    4     -1.17468    0.00000
    5     -0.78299    0.00000
    6     -0.37845    0.00000
    7      1.60242    0.00000
    8      1.60242    0.00000
    9      1.60912    0.00000

Gap: 0.098 eV
Transition (v -> c):
  (s=0, k=0, n=2, [0.00, 0.00, 0.00]) -> (s=0, k=0, n=3, [0.00, 0.00, 0.00])

Forces in eV/Ang:
  0 Na    4.26407    4.26407    0.00000
  1 Na    4.26407   -4.26407    0.00000
  2 Na   -4.26407   -4.26407    0.00000
  3 Na   -4.26407    4.26407    0.00000
  4 Na    0.00000   -0.00000    6.53191
  5 Na   -0.00000    0.00000   -6.53191

System changes: positions 

Initializing position-dependent things.

Density initialized from wave functions
             .------------------------------------------------.  
            /|                                                |  
           / |                                                |  
          /  |                                                |  
         /   |                                                |  
        /    |                                                |  
       /     |                                                |  
      /      |                                                |  
     /       |                                                |  
    /        |                                                |  
   /         |                                                |  
  /          |                                                |  
 *           |                                                |  
 |           |                                                |  
 |           |                                                |  
 |           |                                                |  
 |           |                                                |  
 |           |                 Na                             |  
 |           |               Na    Na                         |  
 |           |              Na    Na                          |  
 |           |                  Na                            |  
 |           |                                                |  
 |           |                                                |  
 |           |                                                |  
 |           |                                                |  
 |           .------------------------------------------------.  
 |          /                                                /   
 |         /                                                /    
 |        /                                                /     
 |       /                                                /      
 |      /                                                /       
 |     /                                                /        
 |    /                                                /         
 |   /                                                /          
 |  /                                                /           
 | /                                                /            
 |/                                                /             
 *------------------------------------------------*              

Positions:
   0 Na    11.290527   11.290527   10.000000    ( 0.0000,  0.0000,  0.0000)
   1 Na    11.290527    8.709473   10.000000    ( 0.0000,  0.0000,  0.0000)
   2 Na     8.709473    8.709473   10.000000    ( 0.0000,  0.0000,  0.0000)
   3 Na     8.709473   11.290527   10.000000    ( 0.0000,  0.0000,  0.0000)
   4 Na    10.000000   10.000000   11.443207    ( 0.0000,  0.0000,  0.0000)
   5 Na    10.000000   10.000000    8.556793    ( 0.0000,  0.0000,  0.0000)

Unit cell:
           periodic     x           y           z      points  spacing
  1. axis:    no    20.000000    0.000000    0.000000    80     0.2500
  2. axis:    no     0.000000   20.000000    0.000000    80     0.2500
  3. axis:    no     0.000000    0.000000   20.000000    80     0.2500

  Lengths:  20.000000  20.000000  20.000000
  Angles:   90.000000  90.000000  90.000000

Effective grid spacing dv^(1/3) = 0.2500

                     log10-error:    total        iterations:
           time      wfs    density  energy       fermi  poisson
iter:   1  10:26:30          +inf     2.187240    4      1      
iter:   2  10:26:32         -1.14     2.230999    4      1      
iter:   3  10:26:33         -1.43     2.248841    4      1      
iter:   4  10:26:35         -1.81     2.251578    3      1      
iter:   5  10:26:36         -2.20     2.252100    3      1      
iter:   6  10:26:38         -3.44     2.252116    2      1      
iter:   7  10:26:39         -3.64     2.252120    2      1      
iter:   8  10:26:41         -3.96     2.252118    2      1      
iter:   9  10:26:42         -4.58     2.252117    1      1      

Converged after 9 iterations.

Dipole moment: (0.000000, -0.000000, -0.000000) |e|*Ang

Energy contributions relative to reference atoms: (reference = -26392.251304)

Kinetic:        +95.258070
Potential:      -73.450787
External:        +0.000000
XC:             -19.665031
Entropy (-ST):   -0.163031
Local:           +0.191381
--------------------------
Free energy:     +2.170602
Extrapolated:    +2.252117

Fermi level: -3.22969

 Band  Eigenvalues  Occupancy
    0     -5.93579    2.00000
    1     -3.30270    1.62318
    2     -3.30270    1.62318
    3     -3.20453    0.75364
    4     -1.07138    0.00000
    5     -0.91097    0.00000
    6     -0.52774    0.00000
    7      1.61001    0.00000
    8      1.61001    0.00000
    9      1.89602    0.00000

Gap: 0.098 eV
Transition (v -> c):
  (s=0, k=0, n=2, [0.00, 0.00, 0.00]) -> (s=0, k=0, n=3, [0.00, 0.00, 0.00])

Forces in eV/Ang:
  0 Na    2.95101    2.95101    0.00000
  1 Na    2.95101   -2.95101    0.00000
  2 Na   -2.95101   -2.95101    0.00000
  3 Na   -2.95101    2.95101    0.00000
  4 Na    0.00000   -0.00000    4.43601
  5 Na    0.00000    0.00000   -4.43601

System changes: positions 

Initializing position-dependent things.

Density initialized from wave functions
             .------------------------------------------------.  
            /|                                                |  
           / |                                                |  
          /  |                                                |  
         /   |                                                |  
        /    |                                                |  
       /     |                                                |  
      /      |                                                |  
     /       |                                                |  
    /        |                                                |  
   /         |                                                |  
  /          |                                                |  
 *           |                                                |  
 |           |                                                |  
 |           |                                                |  
 |           |                                                |  
 |           |                                                |  
 |           |                 Na                             |  
 |           |               Na     Na                        |  
 |           |             Na     Na                          |  
 |           |                  Na                            |  
 |           |                                                |  
 |           |                                                |  
 |           |                                                |  
 |           |                                                |  
 |           .------------------------------------------------.  
 |          /                                                /   
 |         /                                                /    
 |        /                                                /     
 |       /                                                /      
 |      /                                                /       
 |     /                                                /        
 |    /                                                /         
 |   /                                                /          
 |  /                                                /           
 | /                                                /            
 |/                                                /             
 *------------------------------------------------*              

Positions:
   0 Na    11.372491   11.372491   10.000000    ( 0.0000,  0.0000,  0.0000)
   1 Na    11.372491    8.627509   10.000000    ( 0.0000,  0.0000,  0.0000)
   2 Na     8.627509    8.627509   10.000000    ( 0.0000,  0.0000,  0.0000)
   3 Na     8.627509   11.372491   10.000000    ( 0.0000,  0.0000,  0.0000)
   4 Na    10.000000   10.000000   11.568042    ( 0.0000,  0.0000,  0.0000)
   5 Na    10.000000   10.000000    8.431958    ( 0.0000,  0.0000,  0.0000)

Unit cell:
           periodic     x           y           z      points  spacing
  1. axis:    no    20.000000    0.000000    0.000000    80     0.2500
  2. axis:    no     0.000000   20.000000    0.000000    80     0.2500
  3. axis:    no     0.000000    0.000000   20.000000    80     0.2500

  Lengths:  20.000000  20.000000  20.000000
  Angles:   90.000000  90.000000  90.000000

Effective grid spacing dv^(1/3) = 0.2500

                     log10-error:    total        iterations:
           time      wfs    density  energy       fermi  poisson
iter:   1  10:26:44          +inf    -0.308157    3      1      
iter:   2  10:26:46         -1.33    -0.290593    4      1      
iter:   3  10:26:47         -1.60    -0.281576    4      1      
iter:   4  10:26:49         -1.97    -0.279577    3      1      
iter:   5  10:26:50         -2.42    -0.279487    3      1      
iter:   6  10:26:52         -3.48    -0.279516    2      1      
iter:   7  10:26:53         -3.74    -0.279518    2      1      
iter:   8  10:26:55         -3.90    -0.279518    2      1      
iter:   9  10:26:56         -4.58    -0.279517    2      1      

Converged after 9 iterations.

Dipole moment: (0.000000, -0.000000, -0.000000) |e|*Ang

Energy contributions relative to reference atoms: (reference = -26392.251304)

Kinetic:        +76.103544
Potential:      -59.520742
External:        +0.000000
XC:             -16.904321
Entropy (-ST):   -0.163534
Local:           +0.123769
--------------------------
Free energy:     -0.361284
Extrapolated:    -0.279517

Fermi level: -3.14085

 Band  Eigenvalues  Occupancy
    0     -5.76390    2.00000
    1     -3.21345    1.62060
    2     -3.21345    1.62060
    3     -3.11624    0.75879
    4     -1.00118    0.00000
    5     -0.96023    0.00000
    6     -0.57266    0.00000
    7      1.62199    0.00000
    8      1.62199    0.00000
    9      2.13043    0.00000

Gap: 0.097 eV
Transition (v -> c):
  (s=0, k=0, n=2, [0.00, 0.00, 0.00]) -> (s=0, k=0, n=3, [0.00, 0.00, 0.00])

Forces in eV/Ang:
  0 Na    2.02415    2.02415    0.00000
  1 Na    2.02415   -2.02415    0.00000
  2 Na   -2.02415   -2.02415    0.00000
  3 Na   -2.02415    2.02415    0.00000
  4 Na    0.00000    0.00000    2.97508
  5 Na   -0.00000    0.00000   -2.97508

System changes: positions 

Initializing position-dependent things.

Density initialized from wave functions
             .------------------------------------------------.  
            /|                                                |  
           / |                                                |  
          /  |                                                |  
         /   |                                                |  
        /    |                                                |  
       /     |                                                |  
      /      |                                                |  
     /       |                                                |  
    /        |                                                |  
   /         |                                                |  
  /          |                                                |  
 *           |                                                |  
 |           |                                                |  
 |           |                                                |  
 |           |                                                |  
 |           |                 Na                             |  
 |           |                                                |  
 |           |               Na     Na                        |  
 |           |             Na     Na                          |  
 |           |                                                |  
 |           |                  Na                            |  
 |           |                                                |  
 |           |                                                |  
 |           |                                                |  
 |           .------------------------------------------------.  
 |          /                                                /   
 |         /                                                /    
 |        /                                                /     
 |       /                                                /      
 |      /                                                /       
 |     /                                                /        
 |    /                                                /         
 |   /                                                /          
 |  /                                                /           
 | /                                                /            
 |/                                                /             
 *------------------------------------------------*              

Positions:
   0 Na    11.450216   11.450216   10.000000    ( 0.0000,  0.0000,  0.0000)
   1 Na    11.450216    8.549784   10.000000    ( 0.0000,  0.0000,  0.0000)
   2 Na     8.549784    8.549784   10.000000    ( 0.0000,  0.0000,  0.0000)
   3 Na     8.549784   11.450216   10.000000    ( 0.0000,  0.0000,  0.0000)
   4 Na    10.000000   10.000000   11.684462    ( 0.0000,  0.0000,  0.0000)
   5 Na    10.000000   10.000000    8.315538    ( 0.0000,  0.0000,  0.0000)

Unit cell:
           periodic     x           y           z      points  spacing
  1. axis:    no    20.000000    0.000000    0.000000    80     0.2500
  2. axis:    no     0.000000   20.000000    0.000000    80     0.2500
  3. axis:    no     0.000000    0.000000   20.000000    80     0.2500

  Lengths:  20.000000  20.000000  20.000000
  Angles:   90.000000  90.000000  90.000000

Effective grid spacing dv^(1/3) = 0.2500

                     log10-error:    total        iterations:
           time      wfs    density  energy       fermi  poisson
iter:   1  10:26:58          +inf    -1.904925    3      1      
iter:   2  10:27:00         -1.44    -1.899009    4      1      
iter:   3  10:27:01         -1.79    -1.895063    4      1      
iter:   4  10:27:03         -2.09    -1.893737    3      1      
iter:   5  10:27:04         -2.32    -1.893273    3      1      
iter:   6  10:27:06         -3.25    -1.893295    3      1      
iter:   7  10:27:07         -3.87    -1.893297    2      1      
iter:   8  10:27:09         -4.00    -1.893298    2      1      

Converged after 8 iterations.

Dipole moment: (0.000000, -0.000000, -0.000000) |e|*Ang

Energy contributions relative to reference atoms: (reference = -26392.251304)

Kinetic:        +60.669613
Potential:      -48.013074
External:        +0.000000
XC:             -14.556495
Entropy (-ST):   -0.165767
Local:           +0.089541
--------------------------
Free energy:     -1.976181
Extrapolated:    -1.893298

Fermi level: -3.07470

 Band  Eigenvalues  Occupancy
    0     -5.58613    2.00000
    1     -3.14541    1.60885
    2     -3.14541    1.60885
    3     -3.05257    0.78230
    4     -1.07861    0.00000
    5     -0.97327    0.00000
    6     -0.41288    0.00000
    7      1.64426    0.00000
    8      1.64426    0.00000
    9      2.13154    0.00000

Gap: 0.093 eV
Transition (v -> c):
  (s=0, k=0, n=2, [0.00, 0.00, 0.00]) -> (s=0, k=0, n=3, [0.00, 0.00, 0.00])

Forces in eV/Ang:
  0 Na    1.36811    1.36811    0.00000
  1 Na    1.36811   -1.36811    0.00000
  2 Na   -1.36811   -1.36811   -0.00000
  3 Na   -1.36811    1.36811   -0.00000
  4 Na    0.00000    0.00000    1.97461
  5 Na   -0.00000   -0.00000   -1.97461

System changes: positions 

Initializing position-dependent things.

Density initialized from wave functions
             .------------------------------------------------.  
            /|                                                |  
           / |                                                |  
          /  |                                                |  
         /   |                                                |  
        /    |                                                |  
       /     |                                                |  
      /      |                                                |  
     /       |                                                |  
    /        |                                                |  
   /         |                                                |  
  /          |                                                |  
 *           |                                                |  
 |           |                                                |  
 |           |                                                |  
 |           |                                                |  
 |           |                  Na                            |  
 |           |                                                |  
 |           |               Na     Na                        |  
 |           |             Na     Na                          |  
 |           |                                                |  
 |           |                  Na                            |  
 |           |                                                |  
 |           |                                                |  
 |           |                                                |  
 |           .------------------------------------------------.  
 |          /                                                /   
 |         /                                                /    
 |        /                                                /     
 |       /                                                /      
 |      /                                                /       
 |     /                                                /        
 |    /                                                /         
 |   /                                                /          
 |  /                                                /           
 | /                                                /            
 |/                                                /             
 *------------------------------------------------*              

Positions:
   0 Na    11.519903   11.519903   10.000000    ( 0.0000,  0.0000,  0.0000)
   1 Na    11.519903    8.480097   10.000000    ( 0.0000,  0.0000,  0.0000)
   2 Na     8.480097    8.480097   10.000000    ( 0.0000,  0.0000,  0.0000)
   3 Na     8.480097   11.519903   10.000000    ( 0.0000,  0.0000,  0.0000)
   4 Na    10.000000   10.000000   11.786605    ( 0.0000,  0.0000,  0.0000)
   5 Na    10.000000   10.000000    8.213395    ( 0.0000,  0.0000,  0.0000)

Unit cell:
           periodic     x           y           z      points  spacing
  1. axis:    no    20.000000    0.000000    0.000000    80     0.2500
  2. axis:    no     0.000000   20.000000    0.000000    80     0.2500
  3. axis:    no     0.000000    0.000000   20.000000    80     0.2500

  Lengths:  20.000000  20.000000  20.000000
  Angles:   90.000000  90.000000  90.000000

Effective grid spacing dv^(1/3) = 0.2500

                     log10-error:    total        iterations:
           time      wfs    density  energy       fermi  poisson
iter:   1  10:27:11          +inf    -2.862260    4      1      
iter:   2  10:27:12         -1.48    -2.861545    3      1      
iter:   3  10:27:14         -2.01    -2.860028    3      1      
iter:   4  10:27:15         -2.20    -2.859011    3      1      
iter:   5  10:27:16         -2.51    -2.858807    3      1      
iter:   6  10:27:18         -3.94    -2.858810    2      1      
iter:   7  10:27:19         -4.06    -2.858810    2      1      

Converged after 7 iterations.

Dipole moment: (0.000000, -0.000000, 0.000000) |e|*Ang

Energy contributions relative to reference atoms: (reference = -26392.251304)

Kinetic:        +49.242198
Potential:      -39.377183
External:        +0.000000
XC:             -12.710410
Entropy (-ST):   -0.168819
Local:           +0.070994
--------------------------
Free energy:     -2.943219
Extrapolated:    -2.858810

Fermi level: -3.02576

 Band  Eigenvalues  Occupancy
    0     -5.42279    2.00000
    1     -3.09381    1.59184
    2     -3.09381    1.59184
    3     -3.00718    0.81631
    4     -1.14880    0.00000
    5     -1.03056    0.00000
    6     -0.19563    0.00000
    7      1.67599    0.00000
    8      1.67599    0.00000
    9      2.12269    0.00000

Gap: 0.087 eV
Transition (v -> c):
  (s=0, k=0, n=2, [0.00, 0.00, 0.00]) -> (s=0, k=0, n=3, [0.00, 0.00, 0.00])

Forces in eV/Ang:
  0 Na    0.92491    0.92491    0.00000
  1 Na    0.92491   -0.92491    0.00000
  2 Na   -0.92491   -0.92491   -0.00000
  3 Na   -0.92491    0.92491   -0.00000
  4 Na    0.00000   -0.00000    1.31964
  5 Na   -0.00000    0.00000   -1.31964

System changes: positions 

Initializing position-dependent things.

Density initialized from wave functions
             .------------------------------------------------.  
            /|                                                |  
           / |                                                |  
          /  |                                                |  
         /   |                                                |  
        /    |                                                |  
       /     |                                                |  
      /      |                                                |  
     /       |                                                |  
    /        |                                                |  
   /         |                                                |  
  /          |                                                |  
 *           |                                                |  
 |           |                                                |  
 |           |                                                |  
 |           |                                                |  
 |           |                  Na                            |  
 |           |                                                |  
 |           |               Na     Na                        |  
 |           |             Na     Na                          |  
 |           |                                                |  
 |           |                 Na                             |  
 |           |                                                |  
 |           |                                                |  
 |           |                                                |  
 |           .------------------------------------------------.  
 |          /                                                /   
 |         /                                                /    
 |        /                                                /     
 |       /                                                /      
 |      /                                                /       
 |     /                                                /        
 |    /                                                /         
 |   /                                                /          
 |  /                                                /           
 | /                                                /            
 |/                                                /             
 *------------------------------------------------*              

Positions:
   0 Na    11.579777   11.579777   10.000000    ( 0.0000,  0.0000,  0.0000)
   1 Na    11.579777    8.420223   10.000000    ( 0.0000,  0.0000,  0.0000)
   2 Na     8.420223    8.420223   10.000000    ( 0.0000,  0.0000,  0.0000)
   3 Na     8.420223   11.579777   10.000000    ( 0.0000,  0.0000,  0.0000)
   4 Na    10.000000   10.000000   11.872626    ( 0.0000,  0.0000,  0.0000)
   5 Na    10.000000   10.000000    8.127374    ( 0.0000,  0.0000,  0.0000)

Unit cell:
           periodic     x           y           z      points  spacing
  1. axis:    no    20.000000    0.000000    0.000000    80     0.2500
  2. axis:    no     0.000000   20.000000    0.000000    80     0.2500
  3. axis:    no     0.000000    0.000000   20.000000    80     0.2500

  Lengths:  20.000000  20.000000  20.000000
  Angles:   90.000000  90.000000  90.000000

Effective grid spacing dv^(1/3) = 0.2500

                     log10-error:    total        iterations:
           time      wfs    density  energy       fermi  poisson
iter:   1  10:27:21          +inf    -3.416977    4      1      
iter:   2  10:27:23         -1.53    -3.418173    3      1      
iter:   3  10:27:24         -2.22    -3.417429    3      1      
iter:   4  10:27:26         -2.37    -3.416858    3      1      
iter:   5  10:27:27         -2.74    -3.416802    3      1      
iter:   6  10:27:29         -3.05    -3.416796    3      1      
iter:   7  10:27:30         -4.25    -3.416796    2      1      

Converged after 7 iterations.

Dipole moment: (0.000000, 0.000000, -0.000000) |e|*Ang

Energy contributions relative to reference atoms: (reference = -26392.251304)

Kinetic:        +41.108336
Potential:      -33.182029
External:        +0.000000
XC:             -11.315745
Entropy (-ST):   -0.171761
Local:           +0.058522
--------------------------
Free energy:     -3.502676
Extrapolated:    -3.416796

Fermi level: -2.98947

 Band  Eigenvalues  Occupancy
    0     -5.28393    2.00000
    1     -3.05485    1.57422
    2     -3.05485    1.57422
    3     -2.97452    0.85156
    4     -1.21182    0.00000
    5     -1.08760    0.00000
    6      0.00088    0.00000
    7      1.71587    0.00000
    8      1.71587    0.00000
    9      2.12717    0.00000

Gap: 0.080 eV
Transition (v -> c):
  (s=0, k=0, n=2, [0.00, 0.00, 0.00]) -> (s=0, k=0, n=3, [0.00, 0.00, 0.00])

Forces in eV/Ang:
  0 Na    0.63281    0.63281    0.00000
  1 Na    0.63281   -0.63281    0.00000
  2 Na   -0.63281   -0.63281    0.00000
  3 Na   -0.63281    0.63281    0.00000
  4 Na   -0.00000   -0.00000    0.89812
  5 Na   -0.00000    0.00000   -0.89812

System changes: positions 

Initializing position-dependent things.

Density initialized from wave functions
             .------------------------------------------------.  
            /|                                                |  
           / |                                                |  
          /  |                                                |  
         /   |                                                |  
        /    |                                                |  
       /     |                                                |  
      /      |                                                |  
     /       |                                                |  
    /        |                                                |  
   /         |                                                |  
  /          |                                                |  
 *           |                                                |  
 |           |                                                |  
 |           |                                                |  
 |           |                                                |  
 |           |                  Na                            |  
 |           |                                                |  
 |           |              Na      Na                        |  
 |           |             Na      Na                         |  
 |           |                                                |  
 |           |                 Na                             |  
 |           |                                                |  
 |           |                                                |  
 |           |                                                |  
 |           .------------------------------------------------.  
 |          /                                                /   
 |         /                                                /    
 |        /                                                /     
 |       /                                                /      
 |      /                                                /       
 |     /                                                /        
 |    /                                                /         
 |   /                                                /          
 |  /                                                /           
 | /                                                /            
 |/                                                /             
 *------------------------------------------------*              

Positions:
   0 Na    11.633908   11.633908   10.000000    ( 0.0000,  0.0000,  0.0000)
   1 Na    11.633908    8.366092   10.000000    ( 0.0000,  0.0000,  0.0000)
   2 Na     8.366092    8.366092   10.000000    ( 0.0000,  0.0000,  0.0000)
   3 Na     8.366092   11.633908   10.000000    ( 0.0000,  0.0000,  0.0000)
   4 Na    10.000000   10.000000   11.949223    ( 0.0000,  0.0000,  0.0000)
   5 Na    10.000000   10.000000    8.050777    ( 0.0000,  0.0000,  0.0000)

Unit cell:
           periodic     x           y           z      points  spacing
  1. axis:    no    20.000000    0.000000    0.000000    80     0.2500
  2. axis:    no     0.000000   20.000000    0.000000    80     0.2500
  3. axis:    no     0.000000    0.000000   20.000000    80     0.2500

  Lengths:  20.000000  20.000000  20.000000
  Angles:   90.000000  90.000000  90.000000

Effective grid spacing dv^(1/3) = 0.2500

                     log10-error:    total        iterations:
           time      wfs    density  energy       fermi  poisson
iter:   1  10:27:32          +inf    -3.756274    4      1      
iter:   2  10:27:34         -1.57    -3.757973    3      1      
iter:   3  10:27:35         -2.35    -3.757411    2      1      
iter:   4  10:27:37         -2.49    -3.757055    3      1      
iter:   5  10:27:38         -3.04    -3.757053    3      1      
iter:   6  10:27:40         -3.31    -3.757054    3      1      
iter:   7  10:27:41         -4.37    -3.757055    2      1      

Converged after 7 iterations.

Dipole moment: (0.000000, 0.000000, 0.000000) |e|*Ang

Energy contributions relative to reference atoms: (reference = -26392.251304)

Kinetic:        +34.905425
Potential:      -28.433245
External:        +0.000000
XC:             -10.191752
Entropy (-ST):   -0.174351
Local:           +0.049692
--------------------------
Free energy:     -3.844230
Extrapolated:    -3.757055

Fermi level: -2.96087

 Band  Eigenvalues  Occupancy
    0     -5.16226    2.00000
    1     -3.02379    1.55749
    2     -3.02379    1.55749
    3     -2.94932    0.88502
    4     -1.27080    0.00000
    5     -1.14245    0.00000
    6      0.18217    0.00000
    7      1.76579    0.00000
    8      1.76579    0.00000
    9      2.13872    0.00000

Gap: 0.074 eV
Transition (v -> c):
  (s=0, k=0, n=2, [0.00, 0.00, 0.00]) -> (s=0, k=0, n=3, [0.00, 0.00, 0.00])

Forces in eV/Ang:
  0 Na    0.42509    0.42509    0.00000
  1 Na    0.42509   -0.42509    0.00000
  2 Na   -0.42509   -0.42509    0.00000
  3 Na   -0.42509    0.42509    0.00000
  4 Na    0.00000    0.00000    0.60241
  5 Na   -0.00000   -0.00000   -0.60241

System changes: positions 

Initializing position-dependent things.

Density initialized from wave functions
             .------------------------------------------------.  
            /|                                                |  
           / |                                                |  
          /  |                                                |  
         /   |                                                |  
        /    |                                                |  
       /     |                                                |  
      /      |                                                |  
     /       |                                                |  
    /        |                                                |  
   /         |                                                |  
  /          |                                                |  
 *           |                                                |  
 |           |                                                |  
 |           |                                                |  
 |           |                                                |  
 |           |                 Na                             |  
 |           |              Na       Na                       |  
 |           |                                                |  
 |           |                                                |  
 |           |            Na       Na                         |  
 |           |                 Na                             |  
 |           |                                                |  
 |           |                                                |  
 |           |                                                |  
 |           .------------------------------------------------.  
 |          /                                                /   
 |         /                                                /    
 |        /                                                /     
 |       /                                                /      
 |      /                                                /       
 |     /                                                /        
 |    /                                                /         
 |   /                                                /          
 |  /                                                /           
 | /                                                /            
 |/                                                /             
 *------------------------------------------------*              

Positions:
   0 Na    11.678768   11.678768   10.000000    ( 0.0000,  0.0000,  0.0000)
   1 Na    11.678768    8.321232   10.000000    ( 0.0000,  0.0000,  0.0000)
   2 Na     8.321232    8.321232   10.000000    ( 0.0000,  0.0000,  0.0000)
   3 Na     8.321232   11.678768   10.000000    ( 0.0000,  0.0000,  0.0000)
   4 Na    10.000000   10.000000   12.012089    ( 0.0000,  0.0000,  0.0000)
   5 Na    10.000000   10.000000    7.987911    ( 0.0000,  0.0000,  0.0000)

Unit cell:
           periodic     x           y           z      points  spacing
  1. axis:    no    20.000000    0.000000    0.000000    80     0.2500
  2. axis:    no     0.000000   20.000000    0.000000    80     0.2500
  3. axis:    no     0.000000    0.000000   20.000000    80     0.2500

  Lengths:  20.000000  20.000000  20.000000
  Angles:   90.000000  90.000000  90.000000

Effective grid spacing dv^(1/3) = 0.2500

                     log10-error:    total        iterations:
           time      wfs    density  energy       fermi  poisson
iter:   1  10:27:43          +inf    -3.944700    4      1      
iter:   2  10:27:45         -1.66    -3.946394    2      1      
iter:   3  10:27:46         -2.41    -3.945944    3      1      
iter:   4  10:27:48         -2.58    -3.945763    3      1      
iter:   5  10:27:49         -4.00    -3.945771    2      1      

Converged after 5 iterations.

Dipole moment: (0.000000, 0.000000, 0.000000) |e|*Ang

Energy contributions relative to reference atoms: (reference = -26392.251304)

Kinetic:        +30.475947
Potential:      -25.029229
External:        +0.000000
XC:              -9.347551
Entropy (-ST):   -0.176365
Local:           +0.043244
--------------------------
Free energy:     -4.033954
Extrapolated:    -3.945771

Fermi level: -2.94000

 Band  Eigenvalues  Occupancy
    0     -5.06537    2.00000
    1     -3.00092    1.54351
    2     -3.00092    1.54351
    3     -2.93128    0.91298
    4     -1.32164    0.00000
    5     -1.18995    0.00000
    6      0.33971    0.00000
    7      1.82098    0.00000
    8      1.82098    0.00000
    9      2.15356    0.00000

Gap: 0.070 eV
Transition (v -> c):
  (s=0, k=0, n=2, [0.00, 0.00, 0.00]) -> (s=0, k=0, n=3, [0.00, 0.00, 0.00])

Forces in eV/Ang:
  0 Na    0.28522    0.28522    0.00000
  1 Na    0.28522   -0.28522    0.00000
  2 Na   -0.28522   -0.28522    0.00000
  3 Na   -0.28522    0.28522    0.00000
  4 Na   -0.00000   -0.00000    0.40608
  5 Na   -0.00000   -0.00000   -0.40608

System changes: positions 

Initializing position-dependent things.

Density initialized from wave functions
             .------------------------------------------------.  
            /|                                                |  
           / |                                                |  
          /  |                                                |  
         /   |                                                |  
        /    |                                                |  
       /     |                                                |  
      /      |                                                |  
     /       |                                                |  
    /        |                                                |  
   /         |                                                |  
  /          |                                                |  
 *           |                                                |  
 |           |                                                |  
 |           |                                                |  
 |           |                                                |  
 |           |                 Na                             |  
 |           |              Na       Na                       |  
 |           |                                                |  
 |           |                                                |  
 |           |            Na       Na                         |  
 |           |                 Na                             |  
 |           |                                                |  
 |           |                                                |  
 |           |                                                |  
 |           .------------------------------------------------.  
 |          /                                                /   
 |         /                                                /    
 |        /                                                /     
 |       /                                                /      
 |      /                                                /       
 |     /                                                /        
 |    /                                                /         
 |   /                                                /          
 |  /                                                /           
 | /                                                /            
 |/                                                /             
 *------------------------------------------------*              

Positions:
   0 Na    11.714578   11.714578   10.000000    ( 0.0000,  0.0000,  0.0000)
   1 Na    11.714578    8.285422   10.000000    ( 0.0000,  0.0000,  0.0000)
   2 Na     8.285422    8.285422   10.000000    ( 0.0000,  0.0000,  0.0000)
   3 Na     8.285422   11.714578   10.000000    ( 0.0000,  0.0000,  0.0000)
   4 Na    10.000000   10.000000   12.062071    ( 0.0000,  0.0000,  0.0000)
   5 Na    10.000000   10.000000    7.937929    ( 0.0000,  0.0000,  0.0000)

Unit cell:
           periodic     x           y           z      points  spacing
  1. axis:    no    20.000000    0.000000    0.000000    80     0.2500
  2. axis:    no     0.000000   20.000000    0.000000    80     0.2500
  3. axis:    no     0.000000    0.000000   20.000000    80     0.2500

  Lengths:  20.000000  20.000000  20.000000
  Angles:   90.000000  90.000000  90.000000

Effective grid spacing dv^(1/3) = 0.2500

                     log10-error:    total        iterations:
           time      wfs    density  energy       fermi  poisson
iter:   1  10:27:51          +inf    -4.046033    4      1      
iter:   2  10:27:53         -1.76    -4.047490    3      1      
iter:   3  10:27:54         -2.42    -4.047125    3      1      
iter:   4  10:27:56         -2.65    -4.047047    3      1      
iter:   5  10:27:57         -3.52    -4.047048    2      1      
iter:   6  10:27:59         -3.74    -4.047045    2      1      
iter:   7  10:28:00         -4.77    -4.047045    2      1      

Converged after 7 iterations.

Dipole moment: (0.000000, 0.000000, 0.000000) |e|*Ang

Energy contributions relative to reference atoms: (reference = -26392.251304)

Kinetic:        +27.292862
Potential:      -22.572386
External:        +0.000000
XC:              -8.718666
Entropy (-ST):   -0.177847
Local:           +0.040069
--------------------------
Free energy:     -4.135969
Extrapolated:    -4.047045

Fermi level: -2.92542

 Band  Eigenvalues  Occupancy
    0     -4.99099    2.00000
    1     -2.98479    1.53257
    2     -2.98479    1.53257
    3     -2.91889    0.93485
    4     -1.36327    0.00000
    5     -1.22909    0.00000
    6      0.47441    0.00000
    7      1.87532    0.00000
    8      1.87532    0.00000
    9      2.16819    0.00000

Gap: 0.066 eV
Transition (v -> c):
  (s=0, k=0, n=2, [0.00, 0.00, 0.00]) -> (s=0, k=0, n=3, [0.00, 0.00, 0.00])

Forces in eV/Ang:
  0 Na    0.19219    0.19219    0.00000
  1 Na    0.19219   -0.19219    0.00000
  2 Na   -0.19219   -0.19219    0.00000
  3 Na   -0.19219    0.19219    0.00000
  4 Na   -0.00000   -0.00000    0.27633
  5 Na   -0.00000   -0.00000   -0.27633

System changes: positions 

Initializing position-dependent things.

Density initialized from wave functions
             .------------------------------------------------.  
            /|                                                |  
           / |                                                |  
          /  |                                                |  
         /   |                                                |  
        /    |                                                |  
       /     |                                                |  
      /      |                                                |  
     /       |                                                |  
    /        |                                                |  
   /         |                                                |  
  /          |                                                |  
 *           |                                                |  
 |           |                                                |  
 |           |                                                |  
 |           |                                                |  
 |           |                 Na                             |  
 |           |              Na       Na                       |  
 |           |                                                |  
 |           |                                                |  
 |           |            Na       Na                         |  
 |           |                 Na                             |  
 |           |                                                |  
 |           |                                                |  
 |           |                                                |  
 |           .------------------------------------------------.  
 |          /                                                /   
 |         /                                                /    
 |        /                                                /     
 |       /                                                /      
 |      /                                                /       
 |     /                                                /        
 |    /                                                /         
 |   /                                                /          
 |  /                                                /           
 | /                                                /            
 |/                                                /             
 *------------------------------------------------*              

Positions:
   0 Na    11.743141   11.743141   10.000000    ( 0.0000,  0.0000,  0.0000)
   1 Na    11.743141    8.256859   10.000000    ( 0.0000,  0.0000,  0.0000)
   2 Na     8.256859    8.256859   10.000000    ( 0.0000,  0.0000,  0.0000)
   3 Na     8.256859   11.743141   10.000000    ( 0.0000,  0.0000,  0.0000)
   4 Na    10.000000   10.000000   12.101959    ( 0.0000,  0.0000,  0.0000)
   5 Na    10.000000   10.000000    7.898041    ( 0.0000,  0.0000,  0.0000)

Unit cell:
           periodic     x           y           z      points  spacing
  1. axis:    no    20.000000    0.000000    0.000000    80     0.2500
  2. axis:    no     0.000000   20.000000    0.000000    80     0.2500
  3. axis:    no     0.000000    0.000000   20.000000    80     0.2500

  Lengths:  20.000000  20.000000  20.000000
  Angles:   90.000000  90.000000  90.000000

Effective grid spacing dv^(1/3) = 0.2500

                     log10-error:    total        iterations:
           time      wfs    density  energy       fermi  poisson
iter:   1  10:28:02          +inf    -4.100515    4      1      
iter:   2  10:28:03         -1.87    -4.101708    3      1      
iter:   3  10:28:05         -2.46    -4.101409    3      1      
iter:   4  10:28:06         -2.71    -4.101378    3      1      
iter:   5  10:28:08         -3.42    -4.101377    2      1      
iter:   6  10:28:09         -3.66    -4.101374    2      1      
iter:   7  10:28:11         -4.97    -4.101374    2      1      

Converged after 7 iterations.

Dipole moment: (0.000000, 0.000000, 0.000000) |e|*Ang

Energy contributions relative to reference atoms: (reference = -26392.251304)

Kinetic:        +24.982018
Potential:      -20.785007
External:        +0.000000
XC:              -8.246147
Entropy (-ST):   -0.178944
Local:           +0.037234
--------------------------
Free energy:     -4.190846
Extrapolated:    -4.101374

Fermi level: -2.91501

 Band  Eigenvalues  Occupancy
    0     -4.93350    2.00000
    1     -2.97321    1.52407
    2     -2.97321    1.52407
    3     -2.91020    0.95186
    4     -1.39702    0.00000
    5     -1.26107    0.00000
    6      0.59092    0.00000
    7      1.92647    0.00000
    8      1.92647    0.00000
    9      2.18210    0.00000

Gap: 0.063 eV
Transition (v -> c):
  (s=0, k=0, n=2, [0.00, 0.00, 0.00]) -> (s=0, k=0, n=3, [0.00, 0.00, 0.00])

Forces in eV/Ang:
  0 Na    0.12793    0.12793    0.00000
  1 Na    0.12793   -0.12793    0.00000
  2 Na   -0.12793   -0.12793    0.00000
  3 Na   -0.12793    0.12793    0.00000
  4 Na   -0.00000   -0.00000    0.18776
  5 Na   -0.00000   -0.00000   -0.18776

System changes: positions 

Initializing position-dependent things.

Density initialized from wave functions
             .------------------------------------------------.  
            /|                                                |  
           / |                                                |  
          /  |                                                |  
         /   |                                                |  
        /    |                                                |  
       /     |                                                |  
      /      |                                                |  
     /       |                                                |  
    /        |                                                |  
   /         |                                                |  
  /          |                                                |  
 *           |                                                |  
 |           |                                                |  
 |           |                                                |  
 |           |                                                |  
 |           |                  Na                            |  
 |           |              Na       Na                       |  
 |           |                                                |  
 |           |                                                |  
 |           |            Na       Na                         |  
 |           |                  Na                            |  
 |           |                                                |  
 |           |                                                |  
 |           |                                                |  
 |           .------------------------------------------------.  
 |          /                                                /   
 |         /                                                /    
 |        /                                                /     
 |       /                                                /      
 |      /                                                /       
 |     /                                                /        
 |    /                                                /         
 |   /                                                /          
 |  /                                                /           
 | /                                                /            
 |/                                                /             
 *------------------------------------------------*              

Positions:
   0 Na    11.769867   11.769867   10.000000    ( 0.0000,  0.0000,  0.0000)
   1 Na    11.769867    8.230133   10.000000    ( 0.0000,  0.0000,  0.0000)
   2 Na     8.230133    8.230133   10.000000    ( 0.0000,  0.0000,  0.0000)
   3 Na     8.230133   11.769867   10.000000    ( 0.0000,  0.0000,  0.0000)
   4 Na    10.000000   10.000000   12.139481    ( 0.0000,  0.0000,  0.0000)
   5 Na    10.000000   10.000000    7.860519    ( 0.0000,  0.0000,  0.0000)

Unit cell:
           periodic     x           y           z      points  spacing
  1. axis:    no    20.000000    0.000000    0.000000    80     0.2500
  2. axis:    no     0.000000   20.000000    0.000000    80     0.2500
  3. axis:    no     0.000000    0.000000   20.000000    80     0.2500

  Lengths:  20.000000  20.000000  20.000000
  Angles:   90.000000  90.000000  90.000000

Effective grid spacing dv^(1/3) = 0.2500

                     log10-error:    total        iterations:
           time      wfs    density  energy       fermi  poisson
iter:   1  10:28:13          +inf    -4.132648    4      1      
iter:   2  10:28:14         -1.90    -4.133739    3      1      
iter:   3  10:28:16         -2.44    -4.133441    3      1      
iter:   4  10:28:17         -2.71    -4.133424    3      1      
iter:   5  10:28:19         -3.36    -4.133423    2      1      
iter:   6  10:28:20         -3.59    -4.133419    2      1      
iter:   7  10:28:22         -5.05    -4.133420    1      1      

Converged after 7 iterations.

Dipole moment: (-0.000000, -0.000000, -0.000000) |e|*Ang

Energy contributions relative to reference atoms: (reference = -26392.251304)

Kinetic:        +22.971762
Potential:      -19.226243
External:        +0.000000
XC:              -7.823744
Entropy (-ST):   -0.179910
Local:           +0.034760
--------------------------
Free energy:     -4.223374
Extrapolated:    -4.133420

Fermi level: -2.90620

 Band  Eigenvalues  Occupancy
    0     -4.88110    2.00000
    1     -2.96332    1.51624
    2     -2.96332    1.51624
    3     -2.90296    0.96752
    4     -1.42916    0.00000
    5     -1.29172    0.00000
    6      0.70930    0.00000
    7      1.98129    0.00000
    8      1.98129    0.00000
    9      2.19718    0.00000

Gap: 0.060 eV
Transition (v -> c):
  (s=0, k=0, n=2, [0.00, 0.00, 0.00]) -> (s=0, k=0, n=3, [0.00, 0.00, 0.00])

Forces in eV/Ang:
  0 Na    0.07280    0.07280   -0.00000
  1 Na    0.07280   -0.07280   -0.00000
  2 Na   -0.07280   -0.07280   -0.00000
  3 Na   -0.07280    0.07280   -0.00000
  4 Na    0.00000    0.00000    0.11241
  5 Na    0.00000    0.00000   -0.11241

System changes: positions 

Initializing position-dependent things.

Density initialized from wave functions
             .------------------------------------------------.  
            /|                                                |  
           / |                                                |  
          /  |                                                |  
         /   |                                                |  
        /    |                                                |  
       /     |                                                |  
      /      |                                                |  
     /       |                                                |  
    /        |                                                |  
   /         |                                                |  
  /          |                                                |  
 *           |                                                |  
 |           |                                                |  
 |           |                                                |  
 |           |                                                |  
 |           |                  Na                            |  
 |           |              Na       Na                       |  
 |           |                                                |  
 |           |                                                |  
 |           |            Na       Na                         |  
 |           |                  Na                            |  
 |           |                                                |  
 |           |                                                |  
 |           |                                                |  
 |           .------------------------------------------------.  
 |          /                                                /   
 |         /                                                /    
 |        /                                                /     
 |       /                                                /      
 |      /                                                /       
 |     /                                                /        
 |    /                                                /         
 |   /                                                /          
 |  /                                                /           
 | /                                                /            
 |/                                                /             
 *------------------------------------------------*              

Positions:
   0 Na    11.791570   11.791572   10.000000    ( 0.0000,  0.0000,  0.0000)
   1 Na    11.791570    8.208428   10.000000    ( 0.0000,  0.0000,  0.0000)
   2 Na     8.208430    8.208428   10.000000    ( 0.0000,  0.0000,  0.0000)
   3 Na     8.208429   11.791570   10.000000    ( 0.0000,  0.0000,  0.0000)
   4 Na    10.000000   10.000000   12.170277    ( 0.0000,  0.0000,  0.0000)
   5 Na    10.000000   10.000000    7.829722    ( 0.0000,  0.0000,  0.0000)

Unit cell:
           periodic     x           y           z      points  spacing
  1. axis:    no    20.000000    0.000000    0.000000    80     0.2500
  2. axis:    no     0.000000   20.000000    0.000000    80     0.2500
  3. axis:    no     0.000000    0.000000   20.000000    80     0.2500

  Lengths:  20.000000  20.000000  20.000000
  Angles:   90.000000  90.000000  90.000000

Effective grid spacing dv^(1/3) = 0.2500

                     log10-error:    total        iterations:
           time      wfs    density  energy       fermi  poisson
iter:   1  10:28:24          +inf    -4.146904    3      1      
iter:   2  10:28:25         -1.99    -4.147800    3      1      
iter:   3  10:28:27         -2.49    -4.147551    3      1      
iter:   4  10:28:28         -2.76    -4.147548    3      1      
iter:   5  10:28:30         -3.40    -4.147547    2      1      
iter:   6  10:28:31         -3.62    -4.147545    2      1      
iter:   7  10:28:33         -5.13    -4.147545    2      1      

Converged after 7 iterations.

Dipole moment: (-0.000000, -0.000000, -0.000000) |e|*Ang

Energy contributions relative to reference atoms: (reference = -26392.251304)

Kinetic:        +21.434140
Potential:      -18.031037
External:        +0.000000
XC:              -7.493066
Entropy (-ST):   -0.180661
Local:           +0.032750
--------------------------
Free energy:     -4.237875
Extrapolated:    -4.147545

Fermi level: -2.89965

 Band  Eigenvalues  Occupancy
    0     -4.83939    2.00000
    1     -2.95591    1.50990
    2     -2.95591    1.50990
    3     -2.89767    0.98020
    4     -1.45564    0.00000
    5     -1.31716    0.00000
    6      0.81331    0.00000
    7      2.03103    0.00000
    8      2.03103    0.00000
    9      2.21103    0.00000

Gap: 0.058 eV
Transition (v -> c):
  (s=0, k=0, n=2, [0.00, 0.00, 0.00]) -> (s=0, k=0, n=3, [0.00, 0.00, 0.00])

Forces in eV/Ang:
  0 Na    0.03384    0.03384   -0.00000
  1 Na    0.03384   -0.03385   -0.00000
  2 Na   -0.03384   -0.03385   -0.00000
  3 Na   -0.03384    0.03385   -0.00000
  4 Na    0.00000    0.00000    0.06016
  5 Na    0.00000    0.00000   -0.06015

System changes: positions 

Initializing position-dependent things.

Density initialized from wave functions
             .------------------------------------------------.  
            /|                                                |  
           / |                                                |  
          /  |                                                |  
         /   |                                                |  
        /    |                                                |  
       /     |                                                |  
      /      |                                                |  
     /       |                                                |  
    /        |                                                |  
   /         |                                                |  
  /          |                                                |  
 *           |                                                |  
 |           |                                                |  
 |           |                                                |  
 |           |                                                |  
 |           |                  Na                            |  
 |           |              Na       Na                       |  
 |           |                                                |  
 |           |                                                |  
 |           |            Na       Na                         |  
 |           |                  Na                            |  
 |           |                                                |  
 |           |                                                |  
 |           |                                                |  
 |           .------------------------------------------------.  
 |          /                                                /   
 |         /                                                /    
 |        /                                                /     
 |       /                                                /      
 |      /                                                /       
 |     /                                                /        
 |    /                                                /         
 |   /                                                /          
 |  /                                                /           
 | /                                                /            
 |/                                                /             
 *------------------------------------------------*              

Positions:
   0 Na    11.807147   11.807154   10.000000    ( 0.0000,  0.0000,  0.0000)
   1 Na    11.807144    8.192847   10.000000    ( 0.0000,  0.0000,  0.0000)
   2 Na     8.192855    8.192849    9.999999    ( 0.0000,  0.0000,  0.0000)
   3 Na     8.192852   11.807145   10.000000    ( 0.0000,  0.0000,  0.0000)
   4 Na    10.000000   10.000000   12.192737    ( 0.0000,  0.0000,  0.0000)
   5 Na    10.000000   10.000000    7.807259    ( 0.0000,  0.0000,  0.0000)

Unit cell:
           periodic     x           y           z      points  spacing
  1. axis:    no    20.000000    0.000000    0.000000    80     0.2500
  2. axis:    no     0.000000   20.000000    0.000000    80     0.2500
  3. axis:    no     0.000000    0.000000   20.000000    80     0.2500

  Lengths:  20.000000  20.000000  20.000000
  Angles:   90.000000  90.000000  90.000000

Effective grid spacing dv^(1/3) = 0.2500

                     log10-error:    total        iterations:
           time      wfs    density  energy       fermi  poisson
iter:   1  10:28:35          +inf    -4.151274    3      1      
iter:   2  10:28:36         -2.13    -4.151940    3      1      
iter:   3  10:28:38         -2.61    -4.151759    3      1      
iter:   4  10:28:39         -2.88    -4.151765    3      1      
iter:   5  10:28:40         -3.51    -4.151764    2      1      
iter:   6  10:28:42         -3.72    -4.151762    2      1      
iter:   7  10:28:43         -5.17    -4.151762    2      1      

Converged after 7 iterations.

Dipole moment: (-0.000000, -0.000000, -0.000000) |e|*Ang

Energy contributions relative to reference atoms: (reference = -26392.251304)

Kinetic:        +20.375879
Potential:      -17.206825
External:        +0.000000
XC:              -7.261526
Entropy (-ST):   -0.181191
Local:           +0.031305
--------------------------
Free energy:     -4.242357
Extrapolated:    -4.151762

Fermi level: -2.89526

 Band  Eigenvalues  Occupancy
    0     -4.80983    2.00000
    1     -2.95090    1.50530
    2     -2.95090    1.50528
    3     -2.89421    0.98942
    4     -1.47480    0.00000
    5     -1.33576    0.00000
    6      0.89334    0.00000
    7      2.06973    0.00000
    8      2.06974    0.00000
    9      2.22206    0.00000

Gap: 0.057 eV
Transition (v -> c):
  (s=0, k=0, n=2, [0.00, 0.00, 0.00]) -> (s=0, k=0, n=3, [0.00, 0.00, 0.00])

Forces in eV/Ang:
  0 Na    0.00802    0.00802   -0.00000
  1 Na    0.00802   -0.00802   -0.00000
  2 Na   -0.00802   -0.00802   -0.00000
  3 Na   -0.00802    0.00802   -0.00000
  4 Na    0.00000    0.00000    0.02485
  5 Na    0.00000    0.00000   -0.02485

System changes: positions 

Initializing position-dependent things.

Density initialized from wave functions
             .------------------------------------------------.  
            /|                                                |  
           / |                                                |  
          /  |                                                |  
         /   |                                                |  
        /    |                                                |  
       /     |                                                |  
      /      |                                                |  
     /       |                                                |  
    /        |                                                |  
   /         |                                                |  
  /          |                                                |  
 *           |                                                |  
 |           |                                                |  
 |           |                                                |  
 |           |                                                |  
 |           |                  Na                            |  
 |           |              Na       Na                       |  
 |           |                                                |  
 |           |                                                |  
 |           |            Na       Na                         |  
 |           |                  Na                            |  
 |           |                                                |  
 |           |                                                |  
 |           |                                                |  
 |           .------------------------------------------------.  
 |          /                                                /   
 |         /                                                /    
 |        /                                                /     
 |       /                                                /      
 |      /                                                /       
 |     /                                                /        
 |    /                                                /         
 |   /                                                /          
 |  /                                                /           
 | /                                                /            
 |/                                                /             
 *------------------------------------------------*              

Positions:
   0 Na    11.812827   11.812836    9.999999    ( 0.0000,  0.0000,  0.0000)
   1 Na    11.812822    8.187164   10.000000    ( 0.0000,  0.0000,  0.0000)
   2 Na     8.187176    8.187167    9.999999    ( 0.0000,  0.0000,  0.0000)
   3 Na     8.187172   11.812825   10.000000    ( 0.0000,  0.0000,  0.0000)
   4 Na    10.000001   10.000000   12.201097    ( 0.0000,  0.0000,  0.0000)
   5 Na    10.000000   10.000000    7.798897    ( 0.0000,  0.0000,  0.0000)

Unit cell:
           periodic     x           y           z      points  spacing
  1. axis:    no    20.000000    0.000000    0.000000    80     0.2500
  2. axis:    no     0.000000   20.000000    0.000000    80     0.2500
  3. axis:    no     0.000000    0.000000   20.000000    80     0.2500

  Lengths:  20.000000  20.000000  20.000000
  Angles:   90.000000  90.000000  90.000000

Effective grid spacing dv^(1/3) = 0.2500

                     log10-error:    total        iterations:
           time      wfs    density  energy       fermi  poisson
iter:   1  10:28:45          +inf    -4.151933    3      1      
iter:   2  10:28:47         -2.56    -4.152199    3      1      
iter:   3  10:28:48         -3.03    -4.152135    2      1      
iter:   4  10:28:49         -3.30    -4.152140    3      1      
iter:   5  10:28:51         -3.93    -4.152140    2      1      
iter:   6  10:28:52         -4.14    -4.152140    2      1      

Converged after 6 iterations.

Dipole moment: (-0.000001, -0.000000, -0.000000) |e|*Ang

Energy contributions relative to reference atoms: (reference = -26392.251304)

Kinetic:        +19.996861
Potential:      -16.911244
External:        +0.000000
XC:              -7.177857
Entropy (-ST):   -0.181387
Local:           +0.030793
--------------------------
Free energy:     -4.242833
Extrapolated:    -4.152140

Fermi level: -2.89373

 Band  Eigenvalues  Occupancy
    0     -4.79908    2.00000
    1     -2.94914    1.50357
    2     -2.94913    1.50354
    3     -2.89302    0.99289
    4     -1.48182    0.00000
    5     -1.34265    0.00000
    6      0.92393    0.00000
    7      2.08450    0.00000
    8      2.08451    0.00000
    9      2.22627    0.00000

Gap: 0.056 eV
Transition (v -> c):
  (s=0, k=0, n=2, [0.00, 0.00, 0.00]) -> (s=0, k=0, n=3, [0.00, 0.00, 0.00])

Forces in eV/Ang:
  0 Na   -0.00077   -0.00077   -0.00000
  1 Na   -0.00077    0.00077   -0.00000
  2 Na    0.00077    0.00076   -0.00000
  3 Na    0.00077   -0.00076   -0.00000
  4 Na    0.00000    0.00000    0.01261
  5 Na    0.00000    0.00000   -0.01260

Writing to Na6_cluster.gpw (mode='all')

Timing:                                       incl.     excl.
--------------------------------------------------------------------
Basic WFS set positions:                      0.010     0.005   0.0% |
 Redistribute:                                0.005     0.005   0.0% |
Basis functions set positions:                0.404     0.404   0.2% |
Forces:                                       6.378     1.342   0.7% |
 LCAO forces:                                 5.036     0.005   0.0% |
  Atomic Hamiltonian force:                   0.019     0.019   0.0% |
  Initial:                                    0.001     0.000   0.0% |
   Get density matrix:                        0.001     0.001   0.0% |
  Paw correction:                             0.016     0.016   0.0% |
  Potential:                                  4.684     4.684   2.3% ||
  TCI derivative:                             0.311     0.311   0.2% |
  Wait for sum:                               0.000     0.000   0.0% |
LCAO WFS Initialize:                         22.832     0.129   0.1% |
 Density initialized from wave functions:     3.003     2.022   1.0% |
  Calculate density matrix:                   0.001     0.001   0.0% |
  Construct density:                          0.979     0.979   0.5% |
  Symmetrize density:                         0.000     0.000   0.0% |
 Hamiltonian:                                19.700     0.002   0.0% |
  Atomic:                                     1.111     0.014   0.0% |
   XC Correction:                             1.097     1.097   0.5% |
  Calculate atomic Hamiltonians:              0.098     0.098   0.0% |
  Communicate:                                0.000     0.000   0.0% |
  Hartree integrate/restrict:                 1.445     1.445   0.7% |
  Initialize Hamiltonian:                     0.000     0.000   0.0% |
  Poisson:                                    7.537     0.387   0.2% |
   Communicate bwd 0:                         0.892     0.892   0.4% |
   Communicate bwd 1:                         0.590     0.590   0.3% |
   Communicate fwd 0:                         0.817     0.817   0.4% |
   Communicate fwd 1:                         0.900     0.900   0.5% |
   fft:                                       1.100     1.100   0.6% |
   fft2:                                      2.853     2.853   1.4% ||
  XC 3D grid:                                 9.341     9.341   4.7% |-|
  vbar:                                       0.165     0.165   0.1% |
P tci:                                        0.167     0.167   0.1% |
Redistribute:                                 0.003     0.003   0.0% |
SCF-cycle:                                  162.170     0.067   0.0% |
 Density:                                    21.522     0.003   0.0% |
  Atomic density matrices:                    0.088     0.088   0.0% |
  Mix:                                       13.858    13.858   6.9% |--|
  Multipole moments:                          0.022     0.022   0.0% |
  Normalize:                                  0.060     0.060   0.0% |
  Pseudo density:                             7.491     0.239   0.1% |
   Calculate density matrix:                  0.005     0.005   0.0% |
   Construct density:                         7.245     7.245   3.6% ||
   Symmetrize density:                        0.002     0.002   0.0% |
 Hamiltonian:                               133.415     0.014   0.0% |
  Atomic:                                     7.501     0.097   0.0% |
   XC Correction:                             7.404     7.404   3.7% ||
  Calculate atomic Hamiltonians:              0.672     0.672   0.3% |
  Communicate:                                0.001     0.001   0.0% |
  Hartree integrate/restrict:                 9.782     9.782   4.9% |-|
  Poisson:                                   51.060     2.556   1.3% ||
   Communicate bwd 0:                         6.030     6.030   3.0% ||
   Communicate bwd 1:                         4.015     4.015   2.0% ||
   Communicate fwd 0:                         5.538     5.538   2.8% ||
   Communicate fwd 1:                         6.084     6.084   3.0% ||
   fft:                                       7.465     7.465   3.7% ||
   fft2:                                     19.372    19.372   9.7% |---|
  XC 3D grid:                                63.312    63.312  31.7% |------------|
  vbar:                                       1.073     1.073   0.5% |
 LCAO eigensolver:                            7.166     0.009   0.0% |
  Calculate projections:                      0.006     0.006   0.0% |
  DenseAtomicCorrection:                      0.025     0.025   0.0% |
  Distribute overlap matrix:                  0.002     0.002   0.0% |
  Orbital Layouts:                            0.036     0.036   0.0% |
  Potential matrix:                           7.088     7.088   3.6% ||
ST tci:                                       0.050     0.050   0.0% |
Set symmetry:                                 0.001     0.001   0.0% |
TCI: Evaluate splines:                        0.018     0.018   0.0% |
mktci:                                        0.017     0.017   0.0% |
Other:                                        7.452     7.452   3.7% ||
--------------------------------------------------------------------
Total:                                                199.502 100.0%

Memory usage: 633.04 MiB
Date: Mon Feb  3 10:28:53 2020
