
  ___ ___ ___ _ _ _  
 |   |   |_  | | | | 
 | | | | | . | | | | 
 |__ |  _|___|_____|  19.8.1
 |___|_|             

User:   ericlin@hebbe07-9
Date:   Mon Feb  3 10:28:53 2020
Arch:   x86_64
Pid:    28253
Python: 3.7.2
gpaw:   /apps/Hebbe7/software/MPI/intel/2019.1.144-GCC-8.2.0-2.31.1/impi/2018.4.274/GPAW/19.8.1-Python-3.7.2/lib/python3.7/site-packages/gpaw
_gpaw:  /apps/Hebbe7/software/MPI/intel/2019.1.144-GCC-8.2.0-2.31.1/impi/2018.4.274/GPAW/19.8.1-Python-3.7.2/bin/
        gpaw-python
ase:    /apps/Hebbe7/software/MPI/intel/2019.1.144-GCC-8.2.0-2.31.1/impi/2018.4.274/ASE/3.18.0-Python-3.7.2/lib/python3.7/site-packages/ase (version 3.18.0)
numpy:  /apps/Hebbe7/software/MPI/intel/2019.1.144-GCC-8.2.0-2.31.1/impi/2018.4.274/SciPy-bundle/2019.03/lib/python3.7/site-packages/numpy (version 1.16.2)
scipy:  /apps/Hebbe7/software/MPI/intel/2019.1.144-GCC-8.2.0-2.31.1/impi/2018.4.274/SciPy-bundle/2019.03/lib/python3.7/site-packages/scipy (version 1.2.1)
libxc:  4.3.4
units:  Angstrom and eV
cores:  1

Input parameters:
  basis: dzp
  h: 0.25
  mode: lcao
  nbands: 10
  occupations: {name: fermi-dirac,
                width: 0.05}
  setups: {Na: 1}

System changes: positions, numbers, cell, pbc, initial_charges, initial_magmoms 

Initialize ...

Na-setup:
  name: Sodium
  id: fa5c50181d04022fed15b2593599c257
  Z: 11
  valence: 1
  core: 10
  charge: 0.0
  file: /apps/Common/Core/GPAW-setups/0.9.20000/Na.1.LDA.gz
  compensation charges: gauss, rc=0.43, lmax=2
  cutoffs: 2.36(filt), 3.60(core),
  valence states:
                energy  radius
    3s(1.00)    -2.819   1.349
    3p(0.00)    -0.774   1.349
    *s          24.392   1.349

  LCAO basis set for Na:
    Name: 1.dzp
    File: /apps/Common/Core/GPAW-setups/0.9.20000/Na.1.dzp.basis.gz
    Number of radial functions: 3
    Number of spherical harmonics: 5
      l=0, rc=11.7656 Bohr: 3s-sz confined orbital
      l=0, rc=7.1094 Bohr: 3s-dz split-valence wave
      l=1, rc=11.7656 Bohr: p-type Gaussian polarization

Reference energy: -30790.959854

Spin-paired calculation

Occupation numbers:
  Fermi-Dirac: width=0.0500 eV

Convergence criteria:
  Maximum total energy change: 0.0005 eV / electron
  Maximum integral of absolute density change: 0.0001 electrons
  Maximum integral of absolute eigenstate change: 4e-08 eV^2
  Maximum number of iterations: 333

Symmetries present (total): 1

  ( 1  0  0)
  ( 0  1  0)
  ( 0  0  1)

1 k-point (Gamma)
1 k-point in the irreducible part of the Brillouin zone
       k-points in crystal coordinates                weights
   0:     0.00000000    0.00000000    0.00000000          1/1

Wave functions: LCAO
  Diagonalizer: Serial LAPACK
  Atomic Correction: dense with blas
  Datatype: float
 

Eigensolver
   LCAO using direct dense diagonalizer 

Densities:
  Coarse grid: 80*80*80 grid
  Fine grid: 160*160*160 grid
  Total Charge: 0.000000 

Density mixing:
  Method: separate
  Backend: pulay
  Linear mixing parameter: 0.25
  Mixing with 3 old densities
  No damping of long wave oscillations 

Hamiltonian:
  XC and Coulomb potentials evaluated on a 160*160*160 grid
  Using the LDA Exchange-Correlation functional
  Interpolation: tri-quintic (5. degree polynomial)
  Poisson solver: FastPoissonSolver using
    6*3+1=19 point O(h^6) finite-difference Laplacian stencil;
    FFT axes: [];
    FST axes: [0, 1, 2].
 

Memory estimate:
  Process memory now: 633.04 MiB
  Calculator: 224.24 MiB
    Density: 143.03 MiB
      Arrays: 99.53 MiB
      Localized functions: 20.93 MiB
      Mixer: 22.57 MiB
    Hamiltonian: 66.61 MiB
      Arrays: 65.10 MiB
      XC: 0.00 MiB
      Poisson: 0.00 MiB
      vbar: 1.51 MiB
    Wavefunctions: 14.61 MiB
      C [qnM]: 0.00 MiB
      S, T [2 x qmm]: 0.02 MiB
      P [aqMi]: 0.00 MiB
      BasisFunctions: 14.58 MiB
      Eigensolver: 0.00 MiB

Total number of cores used: 1

Number of atoms: 7
Number of atomic orbitals: 35
Number of bands in calculation: 10
Bands to converge: occupied states only
Number of valence electrons: 7

... initialized

Initializing position-dependent things.

Density initialized from atomic densities
             .------------------------------------------------.  
            /|                                                |  
           / |                                                |  
          /  |                                                |  
         /   |                                                |  
        /    |                                                |  
       /     |                                                |  
      /      |                                                |  
     /       |                                                |  
    /        |                                                |  
   /         |                                                |  
  /          |                                                |  
 *           |                                                |  
 |           |                                                |  
 |           |                                                |  
 |           |                                                |  
 |           |                                                |  
 |           |               Na                               |  
 |           |                    Na                          |  
 |           |              Na Na Na                          |  
 |           |              Na Na                             |  
 |           |                                                |  
 |           |                                                |  
 |           |                                                |  
 |           |                                                |  
 |           .------------------------------------------------.  
 |          /                                                /   
 |         /                                                /    
 |        /                                                /     
 |       /                                                /      
 |      /                                                /       
 |     /                                                /        
 |    /                                                /         
 |   /                                                /          
 |  /                                                /           
 | /                                                /            
 |/                                                /             
 *------------------------------------------------*              

Positions:
   0 Na    11.301885    9.037793   10.055713    ( 0.0000,  0.0000,  0.0000)
   1 Na     8.604571   10.514957    8.282346    ( 0.0000,  0.0000,  0.0000)
   2 Na    11.422352    8.888343   10.902924    ( 0.0000,  0.0000,  0.0000)
   3 Na     9.428169   11.111657    8.523744    ( 0.0000,  0.0000,  0.0000)
   4 Na     9.355123    9.265495   11.717654    ( 0.0000,  0.0000,  0.0000)
   5 Na     8.577648    9.477121    9.706026    ( 0.0000,  0.0000,  0.0000)
   6 Na     9.719753   10.232365    9.483265    ( 0.0000,  0.0000,  0.0000)

Unit cell:
           periodic     x           y           z      points  spacing
  1. axis:    no    20.000000    0.000000    0.000000    80     0.2500
  2. axis:    no     0.000000   20.000000    0.000000    80     0.2500
  3. axis:    no     0.000000    0.000000   20.000000    80     0.2500

  Lengths:  20.000000  20.000000  20.000000
  Angles:   90.000000  90.000000  90.000000

Effective grid spacing dv^(1/3) = 0.2500

                     log10-error:    total        iterations:
           time      wfs    density  energy       fermi  poisson
iter:   1  10:28:58          +inf    38.935603    2      1      
iter:   2  10:29:00         -0.52    39.556691    32     1      
iter:   3  10:29:01         -0.76    39.811153    32     1      
iter:   4  10:29:03         -1.02    39.900851    3      1      
iter:   5  10:29:05         -1.37    39.920281    3      1      
iter:   6  10:29:06         -1.69    39.923721    3      1      
iter:   7  10:29:08         -1.97    39.924125    2      1      
iter:   8  10:29:09         -2.30    39.924155    2      1      
iter:   9  10:29:11         -2.52    39.924171    2      1      
iter:  10  10:29:12         -2.83    39.924170    2      1      
iter:  11  10:29:14         -3.01    39.924173    2      1      
iter:  12  10:29:15         -3.30    39.924173    2      1      
iter:  13  10:29:17         -3.51    39.924175    2      1      
iter:  14  10:29:18         -3.76    39.924175    2      1      
iter:  15  10:29:20         -4.07    39.924176    2      1      

Converged after 15 iterations.

Dipole moment: (0.107327, -0.079508, 0.371519) |e|*Ang

Energy contributions relative to reference atoms: (reference = -30790.959854)

Kinetic:       +148.724840
Potential:      -87.844337
External:        +0.000000
XC:             -31.314871
Entropy (-ST):   -0.070836
Local:          +10.393961
--------------------------
Free energy:    +39.888758
Extrapolated:   +39.924176

Fermi level: -3.27100

 Band  Eigenvalues  Occupancy
    0     -6.00784    2.00000
    1     -4.15410    2.00000
    2     -3.57900    1.99578
    3     -3.27142    1.00420
    4     -2.69568    0.00002
    5     -1.21163    0.00000
    6     -0.86705    0.00000
    7     -0.32164    0.00000
    8      0.54873    0.00000
    9      1.50974    0.00000

Gap: 0.576 eV
Transition (v -> c):
  (s=0, k=0, n=3, [0.00, 0.00, 0.00]) -> (s=0, k=0, n=4, [0.00, 0.00, 0.00])

Forces in eV/Ang:
  0 Na   -0.99338    2.80934  -28.74389
  1 Na  -19.60134   -9.02654  -12.21062
  2 Na    7.06646   -5.54731   28.26694
  3 Na   15.05699   20.98541   -3.80396
  4 Na   -2.26367   -0.20400    4.82722
  5 Na  -10.56552   -9.22471    3.91645
  6 Na   11.29995    0.20757    7.74776

System changes: positions 

Initializing position-dependent things.

Density initialized from wave functions
             .------------------------------------------------.  
            /|                                                |  
           / |                                                |  
          /  |                                                |  
         /   |                                                |  
        /    |                                                |  
       /     |                                                |  
      /      |                                                |  
     /       |                                                |  
    /        |                                                |  
   /         |                                                |  
  /          |                                                |  
 *           |                                                |  
 |           |                                                |  
 |           |                                                |  
 |           |                                                |  
 |           |                                                |  
 |           |               Na                               |  
 |           |                    Na                          |  
 |           |             Na  Na Na                          |  
 |           |              Na Na                             |  
 |           |                                                |  
 |           |                                                |  
 |           |                                                |  
 |           |                                                |  
 |           .------------------------------------------------.  
 |          /                                                /   
 |         /                                                /    
 |        /                                                /     
 |       /                                                /      
 |      /                                                /       
 |     /                                                /        
 |    /                                                /         
 |   /                                                /          
 |  /                                                /           
 | /                                                /            
 |/                                                /             
 *------------------------------------------------*              

Positions:
   0 Na    11.295110    9.056954    9.859666    ( 0.0000,  0.0000,  0.0000)
   1 Na     8.470881   10.453392    8.199064    ( 0.0000,  0.0000,  0.0000)
   2 Na    11.470548    8.850507   11.095717    ( 0.0000,  0.0000,  0.0000)
   3 Na     9.530865   11.254788    8.497799    ( 0.0000,  0.0000,  0.0000)
   4 Na     9.339683    9.264104   11.750578    ( 0.0000,  0.0000,  0.0000)
   5 Na     8.505587    9.414204    9.732738    ( 0.0000,  0.0000,  0.0000)
   6 Na     9.796824   10.233780    9.536109    ( 0.0000,  0.0000,  0.0000)

Unit cell:
           periodic     x           y           z      points  spacing
  1. axis:    no    20.000000    0.000000    0.000000    80     0.2500
  2. axis:    no     0.000000   20.000000    0.000000    80     0.2500
  3. axis:    no     0.000000    0.000000   20.000000    80     0.2500

  Lengths:  20.000000  20.000000  20.000000
  Angles:   90.000000  90.000000  90.000000

Effective grid spacing dv^(1/3) = 0.2500

                     log10-error:    total        iterations:
           time      wfs    density  energy       fermi  poisson
iter:   1  10:29:22          +inf    22.002650    3      1      
iter:   2  10:29:23         -0.74    22.133839    6      1      
iter:   3  10:29:25         -0.97    22.190536    6      1      
iter:   4  10:29:26         -1.47    22.194452    3      1      
iter:   5  10:29:28         -1.87    22.194954    3      1      
iter:   6  10:29:29         -2.25    22.195083    2      1      
iter:   7  10:29:31         -2.65    22.195102    2      1      
iter:   8  10:29:32         -3.04    22.195105    2      1      
iter:   9  10:29:34         -3.33    22.195104    2      1      
iter:  10  10:29:35         -3.68    22.195104    2      1      
iter:  11  10:29:37         -3.99    22.195104    2      1      
iter:  12  10:29:38         -4.30    22.195104    1      1      

Converged after 12 iterations.

Dipole moment: (0.056514, -0.043114, 0.297035) |e|*Ang

Energy contributions relative to reference atoms: (reference = -30790.959854)

Kinetic:       +146.128597
Potential:      -99.013334
External:        +0.000000
XC:             -29.206036
Entropy (-ST):   -0.070135
Local:           +4.320944
--------------------------
Free energy:    +22.160036
Extrapolated:   +22.195104

Fermi level: -3.10340

 Band  Eigenvalues  Occupancy
    0     -6.01741    2.00000
    1     -4.17650    2.00000
    2     -3.44698    1.99793
    3     -3.10361    1.00206
    4     -2.48132    0.00001
    5     -1.08222    0.00000
    6     -0.70811    0.00000
    7     -0.14636    0.00000
    8      0.57550    0.00000
    9      1.30474    0.00000

Gap: 0.622 eV
Transition (v -> c):
  (s=0, k=0, n=3, [0.00, 0.00, 0.00]) -> (s=0, k=0, n=4, [0.00, 0.00, 0.00])

Forces in eV/Ang:
  0 Na    1.71355   -0.33110  -13.55128
  1 Na  -10.67890   -4.09339   -8.02782
  2 Na    4.52698   -2.83449   13.19595
  3 Na    7.58910   13.19788   -3.84516
  4 Na   -2.04701   -0.16633    4.36344
  5 Na   -7.95095   -6.86887    2.74154
  6 Na    6.84647    1.09393    5.12258

System changes: positions 

Initializing position-dependent things.

Density initialized from wave functions
             .------------------------------------------------.  
            /|                                                |  
           / |                                                |  
          /  |                                                |  
         /   |                                                |  
        /    |                                                |  
       /     |                                                |  
      /      |                                                |  
     /       |                                                |  
    /        |                                                |  
   /         |                                                |  
  /          |                                                |  
 *           |                                                |  
 |           |                                                |  
 |           |                                                |  
 |           |                                                |  
 |           |                                                |  
 |           |               Na                               |  
 |           |                     Na                         |  
 |           |             Na  Na Na                          |  
 |           |                 Na                             |  
 |           |              Na                                |  
 |           |                                                |  
 |           |                                                |  
 |           |                                                |  
 |           .------------------------------------------------.  
 |          /                                                /   
 |         /                                                /    
 |        /                                                /     
 |       /                                                /      
 |      /                                                /       
 |     /                                                /        
 |    /                                                /         
 |   /                                                /          
 |  /                                                /           
 | /                                                /            
 |/                                                /             
 *------------------------------------------------*              

Positions:
   0 Na    11.304152    9.060300    9.716942    ( 0.0000,  0.0000,  0.0000)
   1 Na     8.364344   10.409610    8.123887    ( 0.0000,  0.0000,  0.0000)
   2 Na    11.513293    8.821559   11.235238    ( 0.0000,  0.0000,  0.0000)
   3 Na     9.608770   11.380152    8.465770    ( 0.0000,  0.0000,  0.0000)
   4 Na     9.322168    9.262641   11.787918    ( 0.0000,  0.0000,  0.0000)
   5 Na     8.434104    9.352261    9.757918    ( 0.0000,  0.0000,  0.0000)
   6 Na     9.862663   10.241191    9.583994    ( 0.0000,  0.0000,  0.0000)

Unit cell:
           periodic     x           y           z      points  spacing
  1. axis:    no    20.000000    0.000000    0.000000    80     0.2500
  2. axis:    no     0.000000   20.000000    0.000000    80     0.2500
  3. axis:    no     0.000000    0.000000   20.000000    80     0.2500

  Lengths:  20.000000  20.000000  20.000000
  Angles:   90.000000  90.000000  90.000000

Effective grid spacing dv^(1/3) = 0.2500

                     log10-error:    total        iterations:
           time      wfs    density  energy       fermi  poisson
iter:   1  10:29:40          +inf    13.903080    3      1      
iter:   2  10:29:42         -0.95    13.960167    4      1      
iter:   3  10:29:43         -1.20    13.987566    4      1      
iter:   4  10:29:45         -1.70    13.989250    3      1      
iter:   5  10:29:47         -2.01    13.989613    3      1      
iter:   6  10:29:48         -2.42    13.989680    2      1      
iter:   7  10:29:50         -2.82    13.989692    2      1      
iter:   8  10:29:51         -3.22    13.989693    2      1      
iter:   9  10:29:53         -3.48    13.989693    2      1      
iter:  10  10:29:54         -3.84    13.989693    2      1      
iter:  11  10:29:56         -4.13    13.989693    1      1      

Converged after 11 iterations.

Dipole moment: (0.025627, -0.014186, 0.211226) |e|*Ang

Energy contributions relative to reference atoms: (reference = -30790.959854)

Kinetic:       +140.240280
Potential:     -100.629390
External:        +0.000000
XC:             -27.525446
Entropy (-ST):   -0.069585
Local:           +1.939041
--------------------------
Free energy:    +13.954900
Extrapolated:   +13.989693

Fermi level: -2.93810

 Band  Eigenvalues  Occupancy
    0     -6.00710    2.00000
    1     -4.20094    2.00000
    2     -3.34618    1.99943
    3     -2.93815    1.00056
    4     -2.34591    0.00001
    5     -0.99123    0.00000
    6     -0.57101    0.00000
    7     -0.01018    0.00000
    8      0.50664    0.00000
    9      1.17354    0.00000

Gap: 0.592 eV
Transition (v -> c):
  (s=0, k=0, n=3, [0.00, 0.00, 0.00]) -> (s=0, k=0, n=4, [0.00, 0.00, 0.00])

Forces in eV/Ang:
  0 Na    2.73405   -1.67365   -7.29772
  1 Na   -6.60554   -1.97419   -5.85182
  2 Na    3.27023   -1.69233    6.87927
  3 Na    4.30320    8.94691   -3.25639
  4 Na   -1.77814   -0.12621    3.87728
  5 Na   -6.06736   -5.24800    1.89776
  6 Na    4.14188    1.76735    3.75242

System changes: positions 

Initializing position-dependent things.

Density initialized from wave functions
             .------------------------------------------------.  
            /|                                                |  
           / |                                                |  
          /  |                                                |  
         /   |                                                |  
        /    |                                                |  
       /     |                                                |  
      /      |                                                |  
     /       |                                                |  
    /        |                                                |  
   /         |                                                |  
  /          |                                                |  
 *           |                                                |  
 |           |                                                |  
 |           |                                                |  
 |           |                                                |  
 |           |                                                |  
 |           |               Na                               |  
 |           |                     Na                         |  
 |           |             Na  Na                             |  
 |           |                  NaNa                          |  
 |           |             Na                                 |  
 |           |                                                |  
 |           |                                                |  
 |           |                                                |  
 |           .------------------------------------------------.  
 |          /                                                /   
 |         /                                                /    
 |        /                                                /     
 |       /                                                /      
 |      /                                                /       
 |     /                                                /        
 |    /                                                /         
 |   /                                                /          
 |  /                                                /           
 | /                                                /            
 |/                                                /             
 *------------------------------------------------*              

Positions:
   0 Na    11.329834    9.048520    9.597749    ( 0.0000,  0.0000,  0.0000)
   1 Na     8.265711   10.375040    8.044640    ( 0.0000,  0.0000,  0.0000)
   2 Na    11.557844    8.795670   11.349869    ( 0.0000,  0.0000,  0.0000)
   3 Na     9.676618   11.506207    8.425465    ( 0.0000,  0.0000,  0.0000)
   4 Na     9.300327    9.260983   11.835062    ( 0.0000,  0.0000,  0.0000)
   5 Na     8.354316    9.283255    9.784213    ( 0.0000,  0.0000,  0.0000)
   6 Na     9.924828   10.258028    9.634670    ( 0.0000,  0.0000,  0.0000)

Unit cell:
           periodic     x           y           z      points  spacing
  1. axis:    no    20.000000    0.000000    0.000000    80     0.2500
  2. axis:    no     0.000000   20.000000    0.000000    80     0.2500
  3. axis:    no     0.000000    0.000000   20.000000    80     0.2500

  Lengths:  20.000000  20.000000  20.000000
  Angles:   90.000000  90.000000  90.000000

Effective grid spacing dv^(1/3) = 0.2500

                     log10-error:    total        iterations:
           time      wfs    density  energy       fermi  poisson
iter:   1  10:29:58          +inf     8.679509    3      1      
iter:   2  10:29:59         -1.05     8.721980    4      1      
iter:   3  10:30:01         -1.31     8.742722    4      1      
iter:   4  10:30:02         -1.82     8.744325    2      1      
iter:   5  10:30:04         -2.14     8.744629    2      1      
iter:   6  10:30:05         -2.49     8.744699    2      1      
iter:   7  10:30:07         -2.91     8.744711    1      1      
iter:   8  10:30:08         -3.30     8.744712    2      1      
iter:   9  10:30:10         -3.55     8.744713    2      1      
iter:  10  10:30:11         -3.88     8.744713    2      1      
iter:  11  10:30:13         -4.15     8.744713    1      1      

Converged after 11 iterations.

Dipole moment: (0.013643, 0.014504, 0.137417) |e|*Ang

Energy contributions relative to reference atoms: (reference = -30790.959854)

Kinetic:       +129.215587
Potential:      -95.789879
External:        +0.000000
XC:             -25.575293
Entropy (-ST):   -0.069430
Local:           +0.929013
--------------------------
Free energy:     +8.709998
Extrapolated:    +8.744713

Fermi level: -2.79687

 Band  Eigenvalues  Occupancy
    0     -5.95710    2.00000
    1     -4.19472    2.00000
    2     -3.26862    1.99984
    3     -2.79688    1.00010
    4     -2.27175    0.00005
    5     -0.96117    0.00000
    6     -0.47702    0.00000
    7      0.05056    0.00000
    8      0.40428    0.00000
    9      1.32555    0.00000

Gap: 0.525 eV
Transition (v -> c):
  (s=0, k=0, n=3, [0.00, 0.00, 0.00]) -> (s=0, k=0, n=4, [0.00, 0.00, 0.00])

Forces in eV/Ang:
  0 Na    2.87965   -2.15511   -4.79120
  1 Na   -4.36439   -1.07184   -4.34574
  2 Na    2.54397   -1.17232    4.20773
  3 Na    2.68431    6.27074   -2.53888
  4 Na   -1.50366   -0.08434    3.37476
  5 Na   -4.57042   -3.98158    1.21725
  6 Na    2.32873    2.19122    2.87643

System changes: positions 

Initializing position-dependent things.

Density initialized from wave functions
             .------------------------------------------------.  
            /|                                                |  
           / |                                                |  
          /  |                                                |  
         /   |                                                |  
        /    |                                                |  
       /     |                                                |  
      /      |                                                |  
     /       |                                                |  
    /        |                                                |  
   /         |                                                |  
  /          |                                                |  
 *           |                                                |  
 |           |                                                |  
 |           |                                                |  
 |           |                                                |  
 |           |                                                |  
 |           |               Na    Na                         |  
 |           |                                                |  
 |           |             Na   Na                            |  
 |           |                  NaNa                          |  
 |           |             Na                                 |  
 |           |                                                |  
 |           |                                                |  
 |           |                                                |  
 |           .------------------------------------------------.  
 |          /                                                /   
 |         /                                                /    
 |        /                                                /     
 |       /                                                /      
 |      /                                                /       
 |     /                                                /        
 |    /                                                /         
 |   /                                                /          
 |  /                                                /           
 | /                                                /            
 |/                                                /             
 *------------------------------------------------*              

Positions:
   0 Na    11.372259    9.020509    9.496756    ( 0.0000,  0.0000,  0.0000)
   1 Na     8.175338   10.348859    7.962480    ( 0.0000,  0.0000,  0.0000)
   2 Na    11.604576    8.772087   11.443351    ( 0.0000,  0.0000,  0.0000)
   3 Na     9.734928   11.630194    8.379312    ( 0.0000,  0.0000,  0.0000)
   4 Na     9.274422    9.259276   11.892086    ( 0.0000,  0.0000,  0.0000)
   5 Na     8.268872    9.209180    9.809737    ( 0.0000,  0.0000,  0.0000)
   6 Na     9.979058   10.287572    9.687953    ( 0.0000,  0.0000,  0.0000)

Unit cell:
           periodic     x           y           z      points  spacing
  1. axis:    no    20.000000    0.000000    0.000000    80     0.2500
  2. axis:    no     0.000000   20.000000    0.000000    80     0.2500
  3. axis:    no     0.000000    0.000000   20.000000    80     0.2500

  Lengths:  20.000000  20.000000  20.000000
  Angles:   90.000000  90.000000  90.000000

Effective grid spacing dv^(1/3) = 0.2500

                     log10-error:    total        iterations:
           time      wfs    density  energy       fermi  poisson
iter:   1  10:30:15          +inf     4.949577    3      1      
iter:   2  10:30:16         -1.14     4.980388    4      1      
iter:   3  10:30:18         -1.40     4.995988    3      1      
iter:   4  10:30:19         -1.90     4.997498    2      1      
iter:   5  10:30:21         -2.24     4.997788    2      1      
iter:   6  10:30:22         -2.56     4.997861    2      1      
iter:   7  10:30:24         -2.99     4.997873    1      1      
iter:   8  10:30:25         -3.37     4.997874    2      1      
iter:   9  10:30:27         -3.64     4.997874    1      1      
iter:  10  10:30:28         -3.94     4.997874    2      1      
iter:  11  10:30:30         -4.23     4.997874    1      1      

Converged after 11 iterations.

Dipole moment: (0.015819, 0.043767, 0.080803) |e|*Ang

Energy contributions relative to reference atoms: (reference = -30790.959854)

Kinetic:       +115.324777
Potential:      -87.346232
External:        +0.000000
XC:             -23.438820
Entropy (-ST):   -0.069457
Local:           +0.492878
--------------------------
Free energy:     +4.963146
Extrapolated:    +4.997874

Fermi level: -2.69118

 Band  Eigenvalues  Occupancy
    0     -5.86757    2.00000
    1     -4.15466    2.00000
    2     -3.21261    1.99994
    3     -2.69117    0.99985
    4     -2.23386    0.00021
    5     -0.99237    0.00000
    6     -0.45475    0.00000
    7      0.09023    0.00000
    8      0.39847    0.00000
    9      1.55775    0.00000

Gap: 0.521 eV
Transition (v -> c):
  (s=0, k=0, n=2, [0.00, 0.00, 0.00]) -> (s=0, k=0, n=3, [0.00, 0.00, 0.00])

Forces in eV/Ang:
  0 Na    2.55819   -2.15558   -3.67984
  1 Na   -2.96114   -0.67430   -3.21267
  2 Na    2.04043   -0.88538    2.94162
  3 Na    1.81554    4.53105   -1.96386
  4 Na   -1.25347   -0.04785    2.88692
  5 Na   -3.41479   -3.03328    0.72724
  6 Na    1.21769    2.26336    2.30214

System changes: positions 

Initializing position-dependent things.

Density initialized from wave functions
             .------------------------------------------------.  
            /|                                                |  
           / |                                                |  
          /  |                                                |  
         /   |                                                |  
        /    |                                                |  
       /     |                                                |  
      /      |                                                |  
     /       |                                                |  
    /        |                                                |  
   /         |                                                |  
  /          |                                                |  
 *           |                                                |  
 |           |                                                |  
 |           |                                                |  
 |           |                                                |  
 |           |               Na                               |  
 |           |                     Na                         |  
 |           |                                                |  
 |           |             Na   Na                            |  
 |           |                  NaNa                          |  
 |           |             Na                                 |  
 |           |                                                |  
 |           |                                                |  
 |           |                                                |  
 |           .------------------------------------------------.  
 |          /                                                /   
 |         /                                                /    
 |        /                                                /     
 |       /                                                /      
 |      /                                                /       
 |     /                                                /        
 |    /                                                /         
 |   /                                                /          
 |  /                                                /           
 | /                                                /            
 |/                                                /             
 *------------------------------------------------*              

Positions:
   0 Na    11.427810    8.977882    9.407614    ( 0.0000,  0.0000,  0.0000)
   1 Na     8.095287   10.329566    7.881319    ( 0.0000,  0.0000,  0.0000)
   2 Na    11.652725    8.750285   11.520301    ( 0.0000,  0.0000,  0.0000)
   3 Na     9.784101   11.747221    8.330982    ( 0.0000,  0.0000,  0.0000)
   4 Na     9.245627    9.257755   11.956947    ( 0.0000,  0.0000,  0.0000)
   5 Na     8.182998    9.134077    9.831929    ( 0.0000,  0.0000,  0.0000)
   6 Na    10.020899   10.330844    9.742601    ( 0.0000,  0.0000,  0.0000)

Unit cell:
           periodic     x           y           z      points  spacing
  1. axis:    no    20.000000    0.000000    0.000000    80     0.2500
  2. axis:    no     0.000000   20.000000    0.000000    80     0.2500
  3. axis:    no     0.000000    0.000000   20.000000    80     0.2500

  Lengths:  20.000000  20.000000  20.000000
  Angles:   90.000000  90.000000  90.000000

Effective grid spacing dv^(1/3) = 0.2500

                     log10-error:    total        iterations:
           time      wfs    density  energy       fermi  poisson
iter:   1  10:30:32          +inf     2.180734    3      1      
iter:   2  10:30:34         -1.24     2.200995    3      1      
iter:   3  10:30:35         -1.49     2.211906    3      1      
iter:   4  10:30:37         -1.98     2.213076    2      1      
iter:   5  10:30:38         -2.34     2.213286    2      1      
iter:   6  10:30:40         -2.64     2.213347    2      1      
iter:   7  10:30:41         -3.13     2.213353    2      1      
iter:   8  10:30:43         -3.46     2.213354    2      1      
iter:   9  10:30:44         -3.77     2.213354    2      1      
iter:  10  10:30:46         -4.05     2.213354    2      1      

Converged after 10 iterations.

Dipole moment: (0.025983, 0.069773, 0.037684) |e|*Ang

Energy contributions relative to reference atoms: (reference = -30790.959854)

Kinetic:       +101.132965
Potential:      -77.850387
External:        +0.000000
XC:             -21.319509
Entropy (-ST):   -0.069572
Local:           +0.285072
--------------------------
Free energy:     +2.178568
Extrapolated:    +2.213354

Fermi level: -2.62119

 Band  Eigenvalues  Occupancy
    0     -5.74983    2.00000
    1     -4.09105    2.00000
    2     -3.17292    1.99997
    3     -2.62114    0.99952
    4     -2.20776    0.00051
    5     -1.05818    0.00000
    6     -0.50272    0.00000
    7      0.18132    0.00000
    8      0.45347    0.00000
    9      1.72926    0.00000

Gap: 0.552 eV
Transition (v -> c):
  (s=0, k=0, n=2, [0.00, 0.00, 0.00]) -> (s=0, k=0, n=3, [0.00, 0.00, 0.00])

Forces in eV/Ang:
  0 Na    2.04583   -1.89312   -3.00938
  1 Na   -2.02019   -0.46113   -2.36254
  2 Na    1.64138   -0.68261    2.19755
  3 Na    1.29091    3.36339   -1.57696
  4 Na   -1.03452   -0.02062    2.43372
  5 Na   -2.55589   -2.34775    0.40252
  6 Na    0.63359    2.03999    1.91349

System changes: positions 

Initializing position-dependent things.

Density initialized from wave functions
             .------------------------------------------------.  
            /|                                                |  
           / |                                                |  
          /  |                                                |  
         /   |                                                |  
        /    |                                                |  
       /     |                                                |  
      /      |                                                |  
     /       |                                                |  
    /        |                                                |  
   /         |                                                |  
  /          |                                                |  
 *           |                                                |  
 |           |                                                |  
 |           |                                                |  
 |           |                                                |  
 |           |               Na                               |  
 |           |                     Na                         |  
 |           |                                                |  
 |           |            Na    Na                            |  
 |           |                  Na Na                         |  
 |           |             Na                                 |  
 |           |                                                |  
 |           |                                                |  
 |           |                                                |  
 |           .------------------------------------------------.  
 |          /                                                /   
 |         /                                                /    
 |        /                                                /     
 |       /                                                /      
 |      /                                                /       
 |     /                                                /        
 |    /                                                /         
 |   /                                                /          
 |  /                                                /           
 | /                                                /            
 |/                                                /             
 *------------------------------------------------*              

Positions:
   0 Na    11.488572    8.926328    9.325630    ( 0.0000,  0.0000,  0.0000)
   1 Na     8.028402   10.315344    7.806899    ( 0.0000,  0.0000,  0.0000)
   2 Na    11.700025    8.730319   11.584770    ( 0.0000,  0.0000,  0.0000)
   3 Na     9.824561   11.851667    8.284330    ( 0.0000,  0.0000,  0.0000)
   4 Na     9.216100    9.256657   12.025021    ( 0.0000,  0.0000,  0.0000)
   5 Na     8.103340    9.063133    9.848608    ( 0.0000,  0.0000,  0.0000)
   6 Na    10.048468   10.384129    9.796442    ( 0.0000,  0.0000,  0.0000)

Unit cell:
           periodic     x           y           z      points  spacing
  1. axis:    no    20.000000    0.000000    0.000000    80     0.2500
  2. axis:    no     0.000000   20.000000    0.000000    80     0.2500
  3. axis:    no     0.000000    0.000000   20.000000    80     0.2500

  Lengths:  20.000000  20.000000  20.000000
  Angles:   90.000000  90.000000  90.000000

Effective grid spacing dv^(1/3) = 0.2500

                     log10-error:    total        iterations:
           time      wfs    density  energy       fermi  poisson
iter:   1  10:30:48          +inf     0.154259    2      1      
iter:   2  10:30:49         -1.36     0.166270    3      1      
iter:   3  10:30:51         -1.59     0.173295    3      1      
iter:   4  10:30:52         -2.09     0.174049    2      1      
iter:   5  10:30:54         -2.51     0.174144    2      1      
iter:   6  10:30:55         -2.75     0.174185    2      1      
iter:   7  10:30:57         -3.39     0.174186    2      1      
iter:   8  10:30:58         -3.62     0.174187    2      1      
iter:   9  10:31:00         -4.01     0.174187    2      1      

Converged after 9 iterations.

Dipole moment: (0.040272, 0.089329, 0.010123) |e|*Ang

Energy contributions relative to reference atoms: (reference = -30790.959854)

Kinetic:        +88.282837
Potential:      -68.862908
External:        +0.000000
XC:             -19.390632
Entropy (-ST):   -0.069653
Local:           +0.179717
--------------------------
Free energy:     +0.139360
Extrapolated:    +0.174187

Fermi level: -2.58194

 Band  Eigenvalues  Occupancy
    0     -5.62007    2.00000
    1     -4.01779    2.00000
    2     -3.14380    1.99997
    3     -2.58187    0.99930
    4     -2.18564    0.00072
    5     -1.13906    0.00000
    6     -0.57908    0.00000
    7      0.32169    0.00000
    8      0.54806    0.00000
    9      1.73651    0.00000

Gap: 0.562 eV
Transition (v -> c):
  (s=0, k=0, n=2, [0.00, 0.00, 0.00]) -> (s=0, k=0, n=3, [0.00, 0.00, 0.00])

Forces in eV/Ang:
  0 Na    1.54033   -1.53973   -2.47364
  1 Na   -1.39671   -0.32607   -1.75610
  2 Na    1.31600   -0.52175    1.67144
  3 Na    0.96452    2.57635   -1.33056
  4 Na   -0.85723   -0.00609    2.03793
  5 Na   -1.93573   -1.85748    0.21131
  6 Na    0.36638    1.67350    1.63582

System changes: positions 

Initializing position-dependent things.

Density initialized from wave functions
             .------------------------------------------------.  
            /|                                                |  
           / |                                                |  
          /  |                                                |  
         /   |                                                |  
        /    |                                                |  
       /     |                                                |  
      /      |                                                |  
     /       |                                                |  
    /        |                                                |  
   /         |                                                |  
  /          |                                                |  
 *           |                                                |  
 |           |                                                |  
 |           |                                                |  
 |           |                                                |  
 |           |               Na                               |  
 |           |                     Na                         |  
 |           |                  Na                            |  
 |           |            Na                                  |  
 |           |                  Na Na                         |  
 |           |             Na                                 |  
 |           |                                                |  
 |           |                                                |  
 |           |                                                |  
 |           .------------------------------------------------.  
 |          /                                                /   
 |         /                                                /    
 |        /                                                /     
 |       /                                                /      
 |      /                                                /       
 |     /                                                /        
 |    /                                                /         
 |   /                                                /          
 |  /                                                /           
 | /                                                /            
 |/                                                /             
 *------------------------------------------------*              

Positions:
   0 Na    11.546350    8.873272    9.249036    ( 0.0000,  0.0000,  0.0000)
   1 Na     7.975108   10.304464    7.742792    ( 0.0000,  0.0000,  0.0000)
   2 Na    11.744117    8.712497   11.639787    ( 0.0000,  0.0000,  0.0000)
   3 Na     9.857676   11.941329    8.241360    ( 0.0000,  0.0000,  0.0000)
   4 Na     9.187845    9.256035   12.091402    ( 0.0000,  0.0000,  0.0000)
   5 Na     8.033943    8.999587    9.859568    ( 0.0000,  0.0000,  0.0000)
   6 Na    10.064448   10.440339    9.847731    ( 0.0000,  0.0000,  0.0000)

Unit cell:
           periodic     x           y           z      points  spacing
  1. axis:    no    20.000000    0.000000    0.000000    80     0.2500
  2. axis:    no     0.000000   20.000000    0.000000    80     0.2500
  3. axis:    no     0.000000    0.000000   20.000000    80     0.2500

  Lengths:  20.000000  20.000000  20.000000
  Angles:   90.000000  90.000000  90.000000

Effective grid spacing dv^(1/3) = 0.2500

                     log10-error:    total        iterations:
           time      wfs    density  energy       fermi  poisson
iter:   1  10:31:02          +inf    -1.291355    2      1      
iter:   2  10:31:03         -1.49    -1.284668    3      1      
iter:   3  10:31:05         -1.70    -1.280438    3      1      
iter:   4  10:31:06         -2.23    -1.280026    2      1      
iter:   5  10:31:08         -2.65    -1.279973    2      1      
iter:   6  10:31:09         -2.88    -1.279949    2      1      
iter:   7  10:31:11         -3.55    -1.279948    2      1      
iter:   8  10:31:12         -3.77    -1.279948    1      1      
iter:   9  10:31:14         -4.19    -1.279948    2      1      

Converged after 9 iterations.

Dipole moment: (0.054685, 0.102023, -0.003434) |e|*Ang

Energy contributions relative to reference atoms: (reference = -30790.959854)

Kinetic:        +77.503124
Potential:      -61.130238
External:        +0.000000
XC:             -17.744644
Entropy (-ST):   -0.069651
Local:           +0.126635
--------------------------
Free energy:     -1.314774
Extrapolated:    -1.279948

Fermi level: -2.56275

 Band  Eigenvalues  Occupancy
    0     -5.49344    2.00000
    1     -3.94660    2.00000
    2     -3.12164    1.99997
    3     -2.56269    0.99931
    4     -2.16592    0.00071
    5     -1.21715    0.00000
    6     -0.65293    0.00000
    7      0.48472    0.00000
    8      0.65899    0.00000
    9      1.71160    0.00000

Gap: 0.559 eV
Transition (v -> c):
  (s=0, k=0, n=2, [0.00, 0.00, 0.00]) -> (s=0, k=0, n=3, [0.00, 0.00, 0.00])

Forces in eV/Ang:
  0 Na    1.13329   -1.19960   -2.01033
  1 Na   -0.98911   -0.23364   -1.33601
  2 Na    1.06033   -0.39772    1.26598
  3 Na    0.75687    2.03552   -1.16340
  4 Na   -0.72303   -0.00175    1.71341
  5 Na   -1.49208   -1.50072    0.11364
  6 Na    0.25316    1.29915    1.41623

System changes: positions 

Initializing position-dependent things.

Density initialized from wave functions
             .------------------------------------------------.  
            /|                                                |  
           / |                                                |  
          /  |                                                |  
         /   |                                                |  
        /    |                                                |  
       /     |                                                |  
      /      |                                                |  
     /       |                                                |  
    /        |                                                |  
   /         |                                                |  
  /          |                                                |  
 *           |                                                |  
 |           |                                                |  
 |           |                                                |  
 |           |                                                |  
 |           |               Na                               |  
 |           |                     Na                         |  
 |           |                  Na                            |  
 |           |            Na                                  |  
 |           |                  Na Na                         |  
 |           |             Na                                 |  
 |           |                                                |  
 |           |                                                |  
 |           |                                                |  
 |           .------------------------------------------------.  
 |          /                                                /   
 |         /                                                /    
 |        /                                                /     
 |       /                                                /      
 |      /                                                /       
 |     /                                                /        
 |    /                                                /         
 |   /                                                /          
 |  /                                                /           
 | /                                                /            
 |/                                                /             
 *------------------------------------------------*              

Positions:
   0 Na    11.600882    8.819738    9.171934    ( 0.0000,  0.0000,  0.0000)
   1 Na     7.930069   10.295039    7.684793    ( 0.0000,  0.0000,  0.0000)
   2 Na    11.787179    8.695645   11.691152    ( 0.0000,  0.0000,  0.0000)
   3 Na     9.887520   12.023834    8.198850    ( 0.0000,  0.0000,  0.0000)
   4 Na     9.159613    9.255761   12.158524    ( 0.0000,  0.0000,  0.0000)
   5 Na     7.970389    8.939297    9.866556    ( 0.0000,  0.0000,  0.0000)
   6 Na    10.073853   10.498177    9.899828    ( 0.0000,  0.0000,  0.0000)

Unit cell:
           periodic     x           y           z      points  spacing
  1. axis:    no    20.000000    0.000000    0.000000    80     0.2500
  2. axis:    no     0.000000   20.000000    0.000000    80     0.2500
  3. axis:    no     0.000000    0.000000   20.000000    80     0.2500

  Lengths:  20.000000  20.000000  20.000000
  Angles:   90.000000  90.000000  90.000000

Effective grid spacing dv^(1/3) = 0.2500

                     log10-error:    total        iterations:
           time      wfs    density  energy       fermi  poisson
iter:   1  10:31:16          +inf    -2.388053    2      1      
iter:   2  10:31:18         -1.58    -2.383819    3      1      
iter:   3  10:31:19         -1.78    -2.380983    3      1      
iter:   4  10:31:21         -2.35    -2.380746    2      1      
iter:   5  10:31:22         -2.66    -2.380686    2      1      
iter:   6  10:31:24         -2.98    -2.380670    2      1      
iter:   7  10:31:25         -3.54    -2.380670    1      1      
iter:   8  10:31:27         -3.79    -2.380669    2      1      
iter:   9  10:31:28         -4.23    -2.380669    1      1      

Converged after 9 iterations.

Dipole moment: (0.068310, 0.109096, -0.009134) |e|*Ang

Energy contributions relative to reference atoms: (reference = -30790.959854)

Kinetic:        +68.110640
Potential:      -54.276554
External:        +0.000000
XC:             -16.275982
Entropy (-ST):   -0.069602
Local:           +0.096027
--------------------------
Free energy:     -2.415471
Extrapolated:    -2.380669

Fermi level: -2.55369

 Band  Eigenvalues  Occupancy
    0     -5.36956    2.00000
    1     -3.87837    2.00000
    2     -3.10317    1.99997
    3     -2.55363    0.99945
    4     -2.14689    0.00059
    5     -1.28350    0.00000
    6     -0.72244    0.00000
    7      0.66053    0.00000
    8      0.77895    0.00000
    9      1.69584    0.00000

Gap: 0.550 eV
Transition (v -> c):
  (s=0, k=0, n=2, [0.00, 0.00, 0.00]) -> (s=0, k=0, n=3, [0.00, 0.00, 0.00])

Forces in eV/Ang:
  0 Na    0.81325   -0.89478   -1.58822
  1 Na   -0.69881   -0.16344   -1.02233
  2 Na    0.84769   -0.29784    0.92426
  3 Na    0.60764    1.61648   -1.02410
  4 Na   -0.61795   -0.00451    1.43740
  5 Na   -1.15365   -1.21932    0.06716
  6 Na    0.20173    0.96306    1.20929

System changes: positions 

Initializing position-dependent things.

Density initialized from wave functions
             .------------------------------------------------.  
            /|                                                |  
           / |                                                |  
          /  |                                                |  
         /   |                                                |  
        /    |                                                |  
       /     |                                                |  
      /      |                                                |  
     /       |                                                |  
    /        |                                                |  
   /         |                                                |  
  /          |                                                |  
 *           |                                                |  
 |           |                                                |  
 |           |                                                |  
 |           |                                                |  
 |           |               Na                               |  
 |           |                     Na                         |  
 |           |                  Na                            |  
 |           |            Na                                  |  
 |           |                   NaNa                         |  
 |           |             Na                                 |  
 |           |                                                |  
 |           |                                                |  
 |           |                                                |  
 |           .------------------------------------------------.  
 |          /                                                /   
 |         /                                                /    
 |        /                                                /     
 |       /                                                /      
 |      /                                                /       
 |     /                                                /        
 |    /                                                /         
 |   /                                                /          
 |  /                                                /           
 | /                                                /            
 |/                                                /             
 *------------------------------------------------*              

Positions:
   0 Na    11.648227    8.770590    9.098264    ( 0.0000,  0.0000,  0.0000)
   1 Na     7.893312   10.286943    7.634409    ( 0.0000,  0.0000,  0.0000)
   2 Na    11.827103    8.680514   11.737295    ( 0.0000,  0.0000,  0.0000)
   3 Na     9.914179   12.097650    8.157835    ( 0.0000,  0.0000,  0.0000)
   4 Na     9.132681    9.255696   12.222731    ( 0.0000,  0.0000,  0.0000)
   5 Na     7.914492    8.884141    9.870529    ( 0.0000,  0.0000,  0.0000)
   6 Na    10.079510   10.551934    9.950550    ( 0.0000,  0.0000,  0.0000)

Unit cell:
           periodic     x           y           z      points  spacing
  1. axis:    no    20.000000    0.000000    0.000000    80     0.2500
  2. axis:    no     0.000000   20.000000    0.000000    80     0.2500
  3. axis:    no     0.000000    0.000000   20.000000    80     0.2500

  Lengths:  20.000000  20.000000  20.000000
  Angles:   90.000000  90.000000  90.000000

Effective grid spacing dv^(1/3) = 0.2500

                     log10-error:    total        iterations:
           time      wfs    density  energy       fermi  poisson
iter:   1  10:31:30          +inf    -3.181471    2      1      
iter:   2  10:31:32         -1.68    -3.178942    2      1      
iter:   3  10:31:33         -1.89    -3.177254    2      1      
iter:   4  10:31:35         -2.45    -3.177097    2      1      
iter:   5  10:31:36         -2.73    -3.177050    2      1      
iter:   6  10:31:38         -3.06    -3.177039    2      1      
iter:   7  10:31:39         -3.58    -3.177038    2      1      
iter:   8  10:31:41         -3.89    -3.177038    1      1      
iter:   9  10:31:42         -4.23    -3.177038    1      1      

Converged after 9 iterations.

Dipole moment: (0.079787, 0.111852, -0.011169) |e|*Ang

Energy contributions relative to reference atoms: (reference = -30790.959854)

Kinetic:        +60.319135
Potential:      -48.515047
External:        +0.000000
XC:             -15.024501
Entropy (-ST):   -0.069546
Local:           +0.078148
--------------------------
Free energy:     -3.211811
Extrapolated:    -3.177038

Fermi level: -2.55100

 Band  Eigenvalues  Occupancy
    0     -5.25713    2.00000
    1     -3.81786    2.00000
    2     -3.08772    1.99996
    3     -2.55096    0.99961
    4     -2.12945    0.00044
    5     -1.33306    0.00000
    6     -0.78467    0.00000
    7      0.82806    0.00000
    8      0.89571    0.00000
    9      1.69229    0.00000

Gap: 0.537 eV
Transition (v -> c):
  (s=0, k=0, n=2, [0.00, 0.00, 0.00]) -> (s=0, k=0, n=3, [0.00, 0.00, 0.00])

Forces in eV/Ang:
  0 Na    0.58424   -0.65281   -1.23824
  1 Na   -0.49543   -0.11095   -0.79284
  2 Na    0.68172   -0.22443    0.65500
  3 Na    0.50009    1.29651   -0.90200
  4 Na   -0.53704   -0.01131    1.21249
  5 Na   -0.90569   -1.00390    0.05049
  6 Na    0.17399    0.70458    1.01630

System changes: positions 

Initializing position-dependent things.

Density initialized from wave functions
             .------------------------------------------------.  
            /|                                                |  
           / |                                                |  
          /  |                                                |  
         /   |                                                |  
        /    |                                                |  
       /     |                                                |  
      /      |                                                |  
     /       |                                                |  
    /        |                                                |  
   /         |                                                |  
  /          |                                                |  
 *           |                                                |  
 |           |                                                |  
 |           |                                                |  
 |           |                                                |  
 |           |               Na                               |  
 |           |                     Na                         |  
 |           |                  Na                            |  
 |           |            Na                                  |  
 |           |                   NaNa                         |  
 |           |            Na                                  |  
 |           |                                                |  
 |           |                                                |  
 |           |                                                |  
 |           .------------------------------------------------.  
 |          /                                                /   
 |         /                                                /    
 |        /                                                /     
 |       /                                                /      
 |      /                                                /       
 |     /                                                /        
 |    /                                                /         
 |   /                                                /          
 |  /                                                /           
 | /                                                /            
 |/                                                /             
 *------------------------------------------------*              

Positions:
   0 Na    11.689133    8.726256    9.028087    ( 0.0000,  0.0000,  0.0000)
   1 Na     7.862458   10.279827    7.589578    ( 0.0000,  0.0000,  0.0000)
   2 Na    11.864463    8.666819   11.778965    ( 0.0000,  0.0000,  0.0000)
   3 Na     9.938975   12.165570    8.117254    ( 0.0000,  0.0000,  0.0000)
   4 Na     9.106568    9.255664   12.284608    ( 0.0000,  0.0000,  0.0000)
   5 Na     7.864169    8.832516    9.872789    ( 0.0000,  0.0000,  0.0000)
   6 Na    10.083751   10.600785   10.000313    ( 0.0000,  0.0000,  0.0000)

Unit cell:
           periodic     x           y           z      points  spacing
  1. axis:    no    20.000000    0.000000    0.000000    80     0.2500
  2. axis:    no     0.000000   20.000000    0.000000    80     0.2500
  3. axis:    no     0.000000    0.000000   20.000000    80     0.2500

  Lengths:  20.000000  20.000000  20.000000
  Angles:   90.000000  90.000000  90.000000

Effective grid spacing dv^(1/3) = 0.2500

                     log10-error:    total        iterations:
           time      wfs    density  energy       fermi  poisson
iter:   1  10:31:44          +inf    -3.766457    2      1      
iter:   2  10:31:46         -1.76    -3.764803    2      1      
iter:   3  10:31:47         -1.99    -3.763785    2      1      
iter:   4  10:31:49         -2.51    -3.763652    2      1      
iter:   5  10:31:50         -2.80    -3.763616    2      1      
iter:   6  10:31:52         -3.12    -3.763607    2      1      
iter:   7  10:31:53         -3.57    -3.763606    2      1      
iter:   8  10:31:55         -3.98    -3.763606    2      1      
iter:   9  10:31:56         -4.27    -3.763606    1      1      

Converged after 9 iterations.

Dipole moment: (0.089305, 0.112384, -0.011597) |e|*Ang

Energy contributions relative to reference atoms: (reference = -30790.959854)

Kinetic:        +53.754499
Potential:      -43.609691
External:        +0.000000
XC:             -13.940152
Entropy (-ST):   -0.069500
Local:           +0.066489
--------------------------
Free energy:     -3.798355
Extrapolated:    -3.763606

Fermi level: -2.55209

 Band  Eigenvalues  Occupancy
    0     -5.15501    2.00000
    1     -3.76415    2.00000
    2     -3.07388    1.99994
    3     -2.55207    0.99975
    4     -2.11343    0.00031
    5     -1.37179    0.00000
    6     -0.84157    0.00000
    7      0.98387    0.00000
    8      1.00761    0.00000
    9      1.69908    0.00000

Gap: 0.522 eV
Transition (v -> c):
  (s=0, k=0, n=2, [0.00, 0.00, 0.00]) -> (s=0, k=0, n=3, [0.00, 0.00, 0.00])

Forces in eV/Ang:
  0 Na    0.41844   -0.46474   -0.95076
  1 Na   -0.34557   -0.07090   -0.61546
  2 Na    0.54877   -0.16881    0.44374
  3 Na    0.41650    1.04073   -0.78809
  4 Na   -0.47133   -0.02007    1.02519
  5 Na   -0.71908   -0.83245    0.04820
  6 Na    0.15211    0.51552    0.83492

System changes: positions 

Initializing position-dependent things.

Density initialized from wave functions
             .------------------------------------------------.  
            /|                                                |  
           / |                                                |  
          /  |                                                |  
         /   |                                                |  
        /    |                                                |  
       /     |                                                |  
      /      |                                                |  
     /       |                                                |  
    /        |                                                |  
   /         |                                                |  
  /          |                                                |  
 *           |                                                |  
 |           |                                                |  
 |           |                                                |  
 |           |                                                |  
 |           |               Na                               |  
 |           |                     Na                         |  
 |           |                  Na                            |  
 |           |           Na                                   |  
 |           |                   Na                           |  
 |           |            Na       Na                         |  
 |           |                                                |  
 |           |                                                |  
 |           |                                                |  
 |           .------------------------------------------------.  
 |          /                                                /   
 |         /                                                /    
 |        /                                                /     
 |       /                                                /      
 |      /                                                /       
 |     /                                                /        
 |    /                                                /         
 |   /                                                /          
 |  /                                                /           
 | /                                                /            
 |/                                                /             
 *------------------------------------------------*              

Positions:
   0 Na    11.724014    8.687318    8.962922    ( 0.0000,  0.0000,  0.0000)
   1 Na     7.836460   10.273677    7.549600    ( 0.0000,  0.0000,  0.0000)
   2 Na    11.899052    8.654583   11.815704    ( 0.0000,  0.0000,  0.0000)
   3 Na     9.962214   12.228102    8.077320    ( 0.0000,  0.0000,  0.0000)
   4 Na     9.081334    9.255511   12.343589    ( 0.0000,  0.0000,  0.0000)
   5 Na     7.818755    8.784241    9.874222    ( 0.0000,  0.0000,  0.0000)
   6 Na    10.087685   10.643984   10.048198    ( 0.0000,  0.0000,  0.0000)

Unit cell:
           periodic     x           y           z      points  spacing
  1. axis:    no    20.000000    0.000000    0.000000    80     0.2500
  2. axis:    no     0.000000   20.000000    0.000000    80     0.2500
  3. axis:    no     0.000000    0.000000   20.000000    80     0.2500

  Lengths:  20.000000  20.000000  20.000000
  Angles:   90.000000  90.000000  90.000000

Effective grid spacing dv^(1/3) = 0.2500

                     log10-error:    total        iterations:
           time      wfs    density  energy       fermi  poisson
iter:   1  10:31:58          +inf    -4.194860    2      1      
iter:   2  10:32:00         -1.84    -4.193722    2      1      
iter:   3  10:32:01         -2.09    -4.193113    2      1      
iter:   4  10:32:03         -2.55    -4.193002    2      1      
iter:   5  10:32:04         -2.86    -4.192972    2      1      
iter:   6  10:32:06         -3.19    -4.192965    2      1      
iter:   7  10:32:07         -3.56    -4.192963    2      1      
iter:   8  10:32:09         -4.02    -4.192963    1      1      

Converged after 8 iterations.

Dipole moment: (0.097150, 0.111936, -0.011126) |e|*Ang

Energy contributions relative to reference atoms: (reference = -30790.959854)

Kinetic:        +48.258813
Potential:      -39.469037
External:        +0.000000
XC:             -13.005687
Entropy (-ST):   -0.069470
Local:           +0.057682
--------------------------
Free energy:     -4.227698
Extrapolated:    -4.192963

Fermi level: -2.55540

 Band  Eigenvalues  Occupancy
    0     -5.06368    2.00000
    1     -3.71714    2.00000
    2     -3.06137    1.99992
    3     -2.55539    0.99986
    4     -2.09906    0.00022
    5     -1.40398    0.00000
    6     -0.89354    0.00000
    7      1.10566    0.00000
    8      1.13190    0.00000
    9      1.71414    0.00000

Gap: 0.506 eV
Transition (v -> c):
  (s=0, k=0, n=2, [0.00, 0.00, 0.00]) -> (s=0, k=0, n=3, [0.00, 0.00, 0.00])

Forces in eV/Ang:
  0 Na    0.29992   -0.32334   -0.72195
  1 Na   -0.23351   -0.04132   -0.47537
  2 Na    0.44234   -0.12784    0.28352
  3 Na    0.34984    0.83269   -0.68179
  4 Na   -0.41729   -0.02924    0.87062
  5 Na   -0.57465   -0.69115    0.05142
  6 Na    0.13241    0.38117    0.67027

System changes: positions 

Initializing position-dependent things.

Density initialized from wave functions
             .------------------------------------------------.  
            /|                                                |  
           / |                                                |  
          /  |                                                |  
         /   |                                                |  
        /    |                                                |  
       /     |                                                |  
      /      |                                                |  
     /       |                                                |  
    /        |                                                |  
   /         |                                                |  
  /          |                                                |  
 *           |                                                |  
 |           |                                                |  
 |           |                                                |  
 |           |                                                |  
 |           |               Na                               |  
 |           |                     Na                         |  
 |           |                  Na                            |  
 |           |           Na                                   |  
 |           |                   Na                           |  
 |           |            Na       Na                         |  
 |           |                                                |  
 |           |                                                |  
 |           |                                                |  
 |           .------------------------------------------------.  
 |          /                                                /   
 |         /                                                /    
 |        /                                                /     
 |       /                                                /      
 |      /                                                /       
 |     /                                                /        
 |    /                                                /         
 |   /                                                /          
 |  /                                                /           
 | /                                                /            
 |/                                                /             
 *------------------------------------------------*              

Positions:
   0 Na    11.753555    8.653816    8.903851    ( 0.0000,  0.0000,  0.0000)
   1 Na     7.814619   10.268510    7.514024    ( 0.0000,  0.0000,  0.0000)
   2 Na    11.930738    8.643769   11.847211    ( 0.0000,  0.0000,  0.0000)
   3 Na     9.983982   12.285347    8.038507    ( 0.0000,  0.0000,  0.0000)
   4 Na     9.057053    9.255111   12.399240    ( 0.0000,  0.0000,  0.0000)
   5 Na     7.777799    8.739326    9.875428    ( 0.0000,  0.0000,  0.0000)
   6 Na    10.091755   10.681532   10.093236    ( 0.0000,  0.0000,  0.0000)

Unit cell:
           periodic     x           y           z      points  spacing
  1. axis:    no    20.000000    0.000000    0.000000    80     0.2500
  2. axis:    no     0.000000   20.000000    0.000000    80     0.2500
  3. axis:    no     0.000000    0.000000   20.000000    80     0.2500

  Lengths:  20.000000  20.000000  20.000000
  Angles:   90.000000  90.000000  90.000000

Effective grid spacing dv^(1/3) = 0.2500

                     log10-error:    total        iterations:
           time      wfs    density  energy       fermi  poisson
iter:   1  10:32:11          +inf    -4.506427    2      1      
iter:   2  10:32:12         -1.91    -4.505611    2      1      
iter:   3  10:32:14         -2.19    -4.505241    2      1      
iter:   4  10:32:15         -2.59    -4.505156    2      1      
iter:   5  10:32:17         -2.90    -4.505130    2      1      
iter:   6  10:32:18         -3.25    -4.505125    2      1      
iter:   7  10:32:20         -3.59    -4.505123    2      1      
iter:   8  10:32:21         -4.01    -4.505123    2      1      

Converged after 8 iterations.

Dipole moment: (0.103746, 0.110923, -0.009810) |e|*Ang

Energy contributions relative to reference atoms: (reference = -30790.959854)

Kinetic:        +43.652292
Potential:      -35.973023
External:        +0.000000
XC:             -12.201638
Entropy (-ST):   -0.069455
Local:           +0.051973
--------------------------
Free energy:     -4.539851
Extrapolated:    -4.505123

Fermi level: -2.55984

 Band  Eigenvalues  Occupancy
    0     -4.98321    2.00000
    1     -3.67661    2.00000
    2     -3.05045    1.99989
    3     -2.55983    0.99995
    4     -2.08649    0.00015
    5     -1.43220    0.00000
    6     -0.94098    0.00000
    7      1.19539    0.00000
    8      1.26561    0.00000
    9      1.73508    0.00000

Gap: 0.491 eV
Transition (v -> c):
  (s=0, k=0, n=2, [0.00, 0.00, 0.00]) -> (s=0, k=0, n=3, [0.00, 0.00, 0.00])

Forces in eV/Ang:
  0 Na    0.21491   -0.21871   -0.54513
  1 Na   -0.14967   -0.02035   -0.36416
  2 Na    0.35607   -0.09693    0.16514
  3 Na    0.29601    0.66292   -0.58301
  4 Na   -0.36965   -0.03779    0.74163
  5 Na   -0.46283   -0.57491    0.05627
  6 Na    0.11349    0.28712    0.52801

System changes: positions 

Initializing position-dependent things.

Density initialized from wave functions
             .------------------------------------------------.  
            /|                                                |  
           / |                                                |  
          /  |                                                |  
         /   |                                                |  
        /    |                                                |  
       /     |                                                |  
      /      |                                                |  
     /       |                                                |  
    /        |                                                |  
   /         |                                                |  
  /          |                                                |  
 *           |                                                |  
 |           |                                                |  
 |           |                                                |  
 |           |                                                |  
 |           |               Na                               |  
 |           |                     Na                         |  
 |           |                  Na                            |  
 |           |           Na                                   |  
 |           |                   Na                           |  
 |           |            Na       Na                         |  
 |           |                                                |  
 |           |                                                |  
 |           |                                                |  
 |           .------------------------------------------------.  
 |          /                                                /   
 |         /                                                /    
 |        /                                                /     
 |       /                                                /      
 |      /                                                /       
 |     /                                                /        
 |    /                                                /         
 |   /                                                /          
 |  /                                                /           
 | /                                                /            
 |/                                                /             
 *------------------------------------------------*              

Positions:
   0 Na    11.777732    8.626349    8.852957    ( 0.0000,  0.0000,  0.0000)
   1 Na     7.796996   10.264440    7.483466    ( 0.0000,  0.0000,  0.0000)
   2 Na    11.958633    8.634586   11.872633    ( 0.0000,  0.0000,  0.0000)
   3 Na    10.003713   12.335780    8.002383    ( 0.0000,  0.0000,  0.0000)
   4 Na     9.034450    9.254383   12.449804    ( 0.0000,  0.0000,  0.0000)
   5 Na     7.742012    8.699001    9.876755    ( 0.0000,  0.0000,  0.0000)
   6 Na    10.095934   10.712882   10.133441    ( 0.0000,  0.0000,  0.0000)

Unit cell:
           periodic     x           y           z      points  spacing
  1. axis:    no    20.000000    0.000000    0.000000    80     0.2500
  2. axis:    no     0.000000   20.000000    0.000000    80     0.2500
  3. axis:    no     0.000000    0.000000   20.000000    80     0.2500

  Lengths:  20.000000  20.000000  20.000000
  Angles:   90.000000  90.000000  90.000000

Effective grid spacing dv^(1/3) = 0.2500

                     log10-error:    total        iterations:
           time      wfs    density  energy       fermi  poisson
iter:   1  10:32:23          +inf    -4.725832    2      1      
iter:   2  10:32:25         -1.98    -4.725267    2      1      
[...]
 |           |                    Na                          |  
 |           |             Na                                 |  
 |           |                                                |  
 |           |                                                |  
 |           .------------------------------------------------.  
 |          /                                                /   
 |         /                                                /    
 |        /                                                /     
 |       /                                                /      
 |      /                                                /       
 |     /                                                /        
 |    /                                                /         
 |   /                                                /          
 |  /                                                /           
 | /                                                /            
 |/                                                /             
 *------------------------------------------------*              

Positions:
   0 Na    11.253220    8.716086    8.371594    ( 0.0000,  0.0000,  0.0000)
   1 Na     8.248307   10.004783    7.413265    ( 0.0000,  0.0000,  0.0000)
   2 Na    12.247460    9.260396   11.485540    ( 0.0000,  0.0000,  0.0000)
   3 Na    11.039316   12.117185    7.988380    ( 0.0000,  0.0000,  0.0000)
   4 Na     9.132316    8.791615   12.841386    ( 0.0000,  0.0000,  0.0000)
   5 Na     7.144749    8.452329   10.024324    ( 0.0000,  0.0000,  0.0000)
   6 Na     9.329881   11.159763   10.507357    ( 0.0000,  0.0000,  0.0000)

Unit cell:
           periodic     x           y           z      points  spacing
  1. axis:    no    20.000000    0.000000    0.000000    80     0.2500
  2. axis:    no     0.000000   20.000000    0.000000    80     0.2500
  3. axis:    no     0.000000    0.000000   20.000000    80     0.2500

  Lengths:  20.000000  20.000000  20.000000
  Angles:   90.000000  90.000000  90.000000

Effective grid spacing dv^(1/3) = 0.2500

                     log10-error:    total        iterations:
           time      wfs    density  energy       fermi  poisson
iter:   1  10:47:12          +inf    -5.577042    2      1      
iter:   2  10:47:14         -2.34    -5.576913    2      1      
iter:   3  10:47:15         -2.93    -5.576908    2      1      
iter:   4  10:47:17         -3.14    -5.576905    1      1      
iter:   5  10:47:18         -3.56    -5.576905    1      1      
iter:   6  10:47:20         -3.90    -5.576905    1      1      
iter:   7  10:47:21         -4.39    -5.576905    1      1      

Converged after 7 iterations.

Dipole moment: (0.003264, 0.096677, 0.048224) |e|*Ang

Energy contributions relative to reference atoms: (reference = -30790.959854)

Kinetic:        +23.271276
Potential:      -20.282950
External:        +0.000000
XC:              -8.562168
Entropy (-ST):   -0.069342
Local:           +0.031607
--------------------------
Free energy:     -5.611576
Extrapolated:    -5.576905

Fermi level: -2.57999

 Band  Eigenvalues  Occupancy
    0     -4.67402    2.00000
    1     -3.40632    2.00000
    2     -3.11340    1.99995
    3     -2.57999    1.00005
    4     -1.79857    0.00000
    5     -1.62863    0.00000
    6     -1.42751    0.00000
    7      1.33858    0.00000
    8      1.86780    0.00000
    9      2.03001    0.00000

Gap: 0.781 eV
Transition (v -> c):
  (s=0, k=0, n=3, [0.00, 0.00, 0.00]) -> (s=0, k=0, n=4, [0.00, 0.00, 0.00])

Forces in eV/Ang:
  0 Na   -0.02304   -0.03487    0.04602
  1 Na   -0.00539    0.02912   -0.03555
  2 Na   -0.03269    0.06030   -0.04303
  3 Na    0.05739   -0.02184   -0.00587
  4 Na    0.02546   -0.00254   -0.07497
  5 Na    0.02726   -0.00291    0.03116
  6 Na   -0.04901   -0.02714    0.08256

System changes: positions 

Initializing position-dependent things.

Density initialized from wave functions
             .------------------------------------------------.  
            /|                                                |  
           / |                                                |  
          /  |                                                |  
         /   |                                                |  
        /    |                                                |  
       /     |                                                |  
      /      |                                                |  
     /       |                                                |  
    /        |                                                |  
   /         |                                                |  
  /          |                                                |  
 *           |                                                |  
 |           |                                                |  
 |           |                                                |  
 |           |                                                |  
 |           |               Na                               |  
 |           |                 Na    Na                       |  
 |           |                                                |  
 |           |          Na                                    |  
 |           |                     Na                         |  
 |           |                    Na                          |  
 |           |             Na                                 |  
 |           |                                                |  
 |           |                                                |  
 |           .------------------------------------------------.  
 |          /                                                /   
 |         /                                                /    
 |        /                                                /     
 |       /                                                /      
 |      /                                                /       
 |     /                                                /        
 |    /                                                /         
 |   /                                                /          
 |  /                                                /           
 | /                                                /            
 |/                                                /             
 *------------------------------------------------*              

Positions:
   0 Na    11.236030    8.700027    8.391563    ( 0.0000,  0.0000,  0.0000)
   1 Na     8.252128   10.014664    7.410748    ( 0.0000,  0.0000,  0.0000)
   2 Na    12.242129    9.294667   11.463997    ( 0.0000,  0.0000,  0.0000)
   3 Na    11.051577   12.093642    8.005370    ( 0.0000,  0.0000,  0.0000)
   4 Na     9.145361    8.771318   12.829691    ( 0.0000,  0.0000,  0.0000)
   5 Na     7.146367    8.453464   10.020454    ( 0.0000,  0.0000,  0.0000)
   6 Na     9.321338   11.174863   10.508951    ( 0.0000,  0.0000,  0.0000)

Unit cell:
           periodic     x           y           z      points  spacing
  1. axis:    no    20.000000    0.000000    0.000000    80     0.2500
  2. axis:    no     0.000000   20.000000    0.000000    80     0.2500
  3. axis:    no     0.000000    0.000000   20.000000    80     0.2500

  Lengths:  20.000000  20.000000  20.000000
  Angles:   90.000000  90.000000  90.000000

Effective grid spacing dv^(1/3) = 0.2500

                     log10-error:    total        iterations:
           time      wfs    density  energy       fermi  poisson
iter:   1  10:47:24          +inf    -5.584853    2      1      
iter:   2  10:47:25         -2.22    -5.584645    2      1      
iter:   3  10:47:27         -2.76    -5.584633    2      1      
iter:   4  10:47:28         -2.98    -5.584629    1      1      
iter:   5  10:47:30         -3.50    -5.584629    1      1      
iter:   6  10:47:31         -3.76    -5.584629    1      1      
iter:   7  10:47:33         -4.25    -5.584629    1      1      

Converged after 7 iterations.

Dipole moment: (0.006303, 0.094189, 0.044856) |e|*Ang

Energy contributions relative to reference atoms: (reference = -30790.959854)

Kinetic:        +23.444954
Potential:      -20.420425
External:        +0.000000
XC:              -8.606337
Entropy (-ST):   -0.069341
Local:           +0.031849
--------------------------
Free energy:     -5.619299
Extrapolated:    -5.584629

Fermi level: -2.58449

 Band  Eigenvalues  Occupancy
    0     -4.68179    2.00000
    1     -3.40051    2.00000
    2     -3.11985    1.99996
    3     -2.58449    1.00004
    4     -1.79393    0.00000
    5     -1.62470    0.00000
    6     -1.42453    0.00000
    7      1.32916    0.00000
    8      1.86948    0.00000
    9      2.00426    0.00000

Gap: 0.791 eV
Transition (v -> c):
  (s=0, k=0, n=3, [0.00, 0.00, 0.00]) -> (s=0, k=0, n=4, [0.00, 0.00, 0.00])

Forces in eV/Ang:
  0 Na   -0.03054   -0.04215    0.03356
  1 Na   -0.00712    0.02878   -0.03446
  2 Na   -0.02380    0.06465   -0.03092
  3 Na    0.06604   -0.01899   -0.01014
  4 Na    0.02410    0.00239   -0.08093
  5 Na    0.03140   -0.00181    0.03067
  6 Na   -0.05961   -0.03290    0.09219

System changes: positions 

Initializing position-dependent things.

Density initialized from wave functions
             .------------------------------------------------.  
            /|                                                |  
           / |                                                |  
          /  |                                                |  
         /   |                                                |  
        /    |                                                |  
       /     |                                                |  
      /      |                                                |  
     /       |                                                |  
    /        |                                                |  
   /         |                                                |  
  /          |                                                |  
 *           |                                                |  
 |           |                                                |  
 |           |                                                |  
 |           |                                                |  
 |           |               Na                               |  
 |           |                 Na    Na                       |  
 |           |                                                |  
 |           |          Na                                    |  
 |           |                     Na                         |  
 |           |                    Na                          |  
 |           |             Na                                 |  
 |           |                                                |  
 |           |                                                |  
 |           .------------------------------------------------.  
 |          /                                                /   
 |         /                                                /    
 |        /                                                /     
 |       /                                                /      
 |      /                                                /       
 |     /                                                /        
 |    /                                                /         
 |   /                                                /          
 |  /                                                /           
 | /                                                /            
 |/                                                /             
 *------------------------------------------------*              

Positions:
   0 Na    11.220989    8.685145    8.409665    ( 0.0000,  0.0000,  0.0000)
   1 Na     8.254527   10.024332    7.405891    ( 0.0000,  0.0000,  0.0000)
   2 Na    12.236376    9.325875   11.444630    ( 0.0000,  0.0000,  0.0000)
   3 Na    11.065771   12.074238    8.017945    ( 0.0000,  0.0000,  0.0000)
   4 Na     9.156937    8.756000   12.813953    ( 0.0000,  0.0000,  0.0000)
   5 Na     7.149239    8.454011   10.020370    ( 0.0000,  0.0000,  0.0000)
   6 Na     9.310733   11.183539   10.517439    ( 0.0000,  0.0000,  0.0000)

Unit cell:
           periodic     x           y           z      points  spacing
  1. axis:    no    20.000000    0.000000    0.000000    80     0.2500
  2. axis:    no     0.000000   20.000000    0.000000    80     0.2500
  3. axis:    no     0.000000    0.000000   20.000000    80     0.2500

  Lengths:  20.000000  20.000000  20.000000
  Angles:   90.000000  90.000000  90.000000

Effective grid spacing dv^(1/3) = 0.2500

                     log10-error:    total        iterations:
           time      wfs    density  energy       fermi  poisson
iter:   1  10:47:35          +inf    -5.593491    2      1      
iter:   2  10:47:37         -2.34    -5.593364    2      1      
iter:   3  10:47:38         -2.82    -5.593356    2      1      
iter:   4  10:47:40         -3.03    -5.593353    2      1      
iter:   5  10:47:41         -3.56    -5.593353    1      1      
iter:   6  10:47:43         -3.86    -5.593353    1      1      
iter:   7  10:47:44         -4.28    -5.593353    1      1      

Converged after 7 iterations.

Dipole moment: (0.007908, 0.091952, 0.041669) |e|*Ang

Energy contributions relative to reference atoms: (reference = -30790.959854)

Kinetic:        +23.584417
Potential:      -20.531656
External:        +0.000000
XC:              -8.643465
Entropy (-ST):   -0.069340
Local:           +0.032020
--------------------------
Free energy:     -5.628023
Extrapolated:    -5.593353

Fermi level: -2.58691

 Band  Eigenvalues  Occupancy
    0     -4.68797    2.00000
    1     -3.39631    2.00000
    2     -3.12556    1.99996
    3     -2.58692    1.00004
    4     -1.78934    0.00000
    5     -1.62187    0.00000
    6     -1.42251    0.00000
    7      1.32836    0.00000
    8      1.85878    0.00000
    9      1.98082    0.00000

Gap: 0.798 eV
Transition (v -> c):
  (s=0, k=0, n=3, [0.00, 0.00, 0.00]) -> (s=0, k=0, n=4, [0.00, 0.00, 0.00])

Forces in eV/Ang:
  0 Na   -0.03907   -0.04710    0.02196
  1 Na   -0.00627    0.02822   -0.02889
  2 Na   -0.01338    0.06881   -0.01991
  3 Na    0.06706   -0.02102   -0.00661
  4 Na    0.02300    0.00184   -0.07807
  5 Na    0.03329   -0.00064    0.02494
  6 Na   -0.06421   -0.02984    0.08683

Writing to Na7_cluster.gpw (mode='all')

Timing:                                       incl.     excl.
--------------------------------------------------------------------
Basic WFS set positions:                      0.066     0.034   0.0% |
 Redistribute:                                0.032     0.032   0.0% |
Basis functions set positions:                2.949     2.949   0.3% |
Forces:                                      48.039     9.760   0.9% |
 LCAO forces:                                38.278     0.038   0.0% |
  Atomic Hamiltonian force:                   0.153     0.153   0.0% |
  Initial:                                    0.009     0.001   0.0% |
   Get density matrix:                        0.008     0.008   0.0% |
  Paw correction:                             0.129     0.129   0.0% |
  Potential:                                 35.345    35.345   3.1% ||
  TCI derivative:                             2.603     2.603   0.2% |
  Wait for sum:                               0.001     0.001   0.0% |
LCAO WFS Initialize:                        141.845     0.140   0.0% |
 Density initialized from wave functions:    20.038    12.146   1.1% |
  Calculate density matrix:                   0.009     0.009   0.0% |
  Construct density:                          7.881     7.881   0.7% |
  Symmetrize density:                         0.002     0.002   0.0% |
 Hamiltonian:                               121.666     0.012   0.0% |
  Atomic:                                     8.079     0.094   0.0% |
   XC Correction:                             7.985     7.985   0.7% |
  Calculate atomic Hamiltonians:              0.684     0.684   0.1% |
  Communicate:                                0.001     0.001   0.0% |
  Hartree integrate/restrict:                 8.001     8.001   0.7% |
  Initialize Hamiltonian:                     0.004     0.004   0.0% |
  Poisson:                                   45.111     2.215   0.2% |
   Communicate bwd 0:                         5.297     5.297   0.5% |
   Communicate bwd 1:                         3.550     3.550   0.3% |
   Communicate fwd 0:                         4.718     4.718   0.4% |
   Communicate fwd 1:                         5.253     5.253   0.5% |
   fft:                                       6.843     6.843   0.6% |
   fft2:                                     17.235    17.235   1.5% ||
  XC 3D grid:                                58.793    58.793   5.2% |-|
  vbar:                                       0.981     0.981   0.1% |
P tci:                                        1.387     1.387   0.1% |
Redistribute:                                 0.017     0.017   0.0% |
SCF-cycle:                                  903.548     0.378   0.0% |
 Density:                                   120.801     0.014   0.0% |
  Atomic density matrices:                    0.520     0.520   0.0% |
  Mix:                                       70.369    70.369   6.2% |-|
  Multipole moments:                          0.135     0.135   0.0% |
  Normalize:                                  0.331     0.331   0.0% |
  Pseudo density:                            49.433     1.256   0.1% |
   Calculate density matrix:                  0.024     0.024   0.0% |
   Construct density:                        48.143    48.143   4.3% |-|
   Symmetrize density:                        0.009     0.009   0.0% |
 Hamiltonian:                               731.191     0.070   0.0% |
  Atomic:                                    48.388     0.559   0.0% |
   XC Correction:                            47.829    47.829   4.2% |-|
  Calculate atomic Hamiltonians:              4.106     4.106   0.4% |
  Communicate:                                0.007     0.007   0.0% |
  Hartree integrate/restrict:                47.906    47.906   4.2% |-|
  Poisson:                                  270.337    13.190   1.2% |
   Communicate bwd 0:                        31.772    31.772   2.8% ||
   Communicate bwd 1:                        21.253    21.253   1.9% ||
   Communicate fwd 0:                        28.460    28.460   2.5% ||
   Communicate fwd 1:                        31.483    31.483   2.8% ||
   fft:                                      40.959    40.959   3.6% ||
   fft2:                                    103.221   103.221   9.1% |---|
  XC 3D grid:                               354.507   354.507  31.3% |------------|
  vbar:                                       5.870     5.870   0.5% |
 LCAO eigensolver:                           51.179     0.047   0.0% |
  Calculate projections:                      0.034     0.034   0.0% |
  DenseAtomicCorrection:                      0.147     0.147   0.0% |
  Distribute overlap matrix:                  0.011     0.011   0.0% |
  Orbital Layouts:                            0.243     0.243   0.0% |
  Potential matrix:                          50.697    50.697   4.5% |-|
ST tci:                                       0.413     0.413   0.0% |
Set symmetry:                                 0.001     0.001   0.0% |
TCI: Evaluate splines:                        0.017     0.017   0.0% |
mktci:                                        0.123     0.123   0.0% |
Other:                                       33.672    33.672   3.0% ||
--------------------------------------------------------------------
Total:                                               1132.076 100.0%

Memory usage: 708.02 MiB
Date: Mon Feb  3 10:47:45 2020
