
  ___ ___ ___ _ _ _  
 |   |   |_  | | | | 
 | | | | | . | | | | 
 |__ |  _|___|_____|  19.8.1
 |___|_|             

User:   ericlin@hebbe07-9
Date:   Mon Feb  3 10:47:45 2020
Arch:   x86_64
Pid:    28253
Python: 3.7.2
gpaw:   /apps/Hebbe7/software/MPI/intel/2019.1.144-GCC-8.2.0-2.31.1/impi/2018.4.274/GPAW/19.8.1-Python-3.7.2/lib/python3.7/site-packages/gpaw
_gpaw:  /apps/Hebbe7/software/MPI/intel/2019.1.144-GCC-8.2.0-2.31.1/impi/2018.4.274/GPAW/19.8.1-Python-3.7.2/bin/
        gpaw-python
ase:    /apps/Hebbe7/software/MPI/intel/2019.1.144-GCC-8.2.0-2.31.1/impi/2018.4.274/ASE/3.18.0-Python-3.7.2/lib/python3.7/site-packages/ase (version 3.18.0)
numpy:  /apps/Hebbe7/software/MPI/intel/2019.1.144-GCC-8.2.0-2.31.1/impi/2018.4.274/SciPy-bundle/2019.03/lib/python3.7/site-packages/numpy (version 1.16.2)
scipy:  /apps/Hebbe7/software/MPI/intel/2019.1.144-GCC-8.2.0-2.31.1/impi/2018.4.274/SciPy-bundle/2019.03/lib/python3.7/site-packages/scipy (version 1.2.1)
libxc:  4.3.4
units:  Angstrom and eV
cores:  1

Input parameters:
  basis: dzp
  h: 0.25
  mode: lcao
  nbands: 10
  occupations: {name: fermi-dirac,
                width: 0.05}
  setups: {Na: 1}

System changes: positions, numbers, cell, pbc, initial_charges, initial_magmoms 

Initialize ...

Na-setup:
  name: Sodium
  id: fa5c50181d04022fed15b2593599c257
  Z: 11
  valence: 1
  core: 10
  charge: 0.0
  file: /apps/Common/Core/GPAW-setups/0.9.20000/Na.1.LDA.gz
  compensation charges: gauss, rc=0.43, lmax=2
  cutoffs: 2.36(filt), 3.60(core),
  valence states:
                energy  radius
    3s(1.00)    -2.819   1.349
    3p(0.00)    -0.774   1.349
    *s          24.392   1.349

  LCAO basis set for Na:
    Name: 1.dzp
    File: /apps/Common/Core/GPAW-setups/0.9.20000/Na.1.dzp.basis.gz
    Number of radial functions: 3
    Number of spherical harmonics: 5
      l=0, rc=11.7656 Bohr: 3s-sz confined orbital
      l=0, rc=7.1094 Bohr: 3s-dz split-valence wave
      l=1, rc=11.7656 Bohr: p-type Gaussian polarization

Reference energy: -35189.668405

Spin-paired calculation

Occupation numbers:
  Fermi-Dirac: width=0.0500 eV

Convergence criteria:
  Maximum total energy change: 0.0005 eV / electron
  Maximum integral of absolute density change: 0.0001 electrons
  Maximum integral of absolute eigenstate change: 4e-08 eV^2
  Maximum number of iterations: 333

Symmetries present (total): 1

  ( 1  0  0)
  ( 0  1  0)
  ( 0  0  1)

1 k-point (Gamma)
1 k-point in the irreducible part of the Brillouin zone
       k-points in crystal coordinates                weights
   0:     0.00000000    0.00000000    0.00000000          1/1

Wave functions: LCAO
  Diagonalizer: Serial LAPACK
  Atomic Correction: dense with blas
  Datatype: float
 

Eigensolver
   LCAO using direct dense diagonalizer 

Densities:
  Coarse grid: 80*80*80 grid
  Fine grid: 160*160*160 grid
  Total Charge: 0.000000 

Density mixing:
  Method: separate
  Backend: pulay
  Linear mixing parameter: 0.25
  Mixing with 3 old densities
  No damping of long wave oscillations 

Hamiltonian:
  XC and Coulomb potentials evaluated on a 160*160*160 grid
  Using the LDA Exchange-Correlation functional
  Interpolation: tri-quintic (5. degree polynomial)
  Poisson solver: FastPoissonSolver using
    6*3+1=19 point O(h^6) finite-difference Laplacian stencil;
    FFT axes: [];
    FST axes: [0, 1, 2].
 

Memory estimate:
  Process memory now: 793.88 MiB
  Calculator: 229.54 MiB
    Density: 146.02 MiB
      Arrays: 99.53 MiB
      Localized functions: 23.92 MiB
      Mixer: 22.57 MiB
    Hamiltonian: 66.82 MiB
      Arrays: 65.10 MiB
      XC: 0.00 MiB
      Poisson: 0.00 MiB
      vbar: 1.73 MiB
    Wavefunctions: 16.70 MiB
      C [qnM]: 0.00 MiB
      S, T [2 x qmm]: 0.02 MiB
      P [aqMi]: 0.00 MiB
      BasisFunctions: 16.67 MiB
      Eigensolver: 0.00 MiB

Total number of cores used: 1

Number of atoms: 8
Number of atomic orbitals: 40
Number of bands in calculation: 10
Bands to converge: occupied states only
Number of valence electrons: 8

... initialized

Initializing position-dependent things.

Density initialized from atomic densities
             .------------------------------------------------.  
            /|                                                |  
           / |                                                |  
          /  |                                                |  
         /   |                                                |  
        /    |                                                |  
       /     |                                                |  
      /      |                                                |  
     /       |                                                |  
    /        |                                                |  
   /         |                                                |  
  /          |                                                |  
 *           |                                                |  
 |           |                                                |  
 |           |                                                |  
 |           |                                                |  
 |           |                                                |  
 |           |               Na                               |  
 |           |                Na   Na                         |  
 |           |               Na                               |  
 |           |               Na  Na                           |  
 |           |                   Na                           |  
 |           |                                                |  
 |           |                                                |  
 |           |                                                |  
 |           .------------------------------------------------.  
 |          /                                                /   
 |         /                                                /    
 |        /                                                /     
 |       /                                                /      
 |      /                                                /       
 |     /                                                /        
 |    /                                                /         
 |   /                                                /          
 |  /                                                /           
 | /                                                /            
 |/                                                /             
 *------------------------------------------------*              

Positions:
   0 Na    11.131017   10.397227   10.116408    ( 0.0000,  0.0000,  0.0000)
   1 Na    10.887149    8.811909    9.491023    ( 0.0000,  0.0000,  0.0000)
   2 Na     9.050524    9.227749   10.144269    ( 0.0000,  0.0000,  0.0000)
   3 Na     9.294633    9.098883    8.926741    ( 0.0000,  0.0000,  0.0000)
   4 Na     9.141088    8.824390    9.601249    ( 0.0000,  0.0000,  0.0000)
   5 Na     8.868983    9.730052   11.273716    ( 0.0000,  0.0000,  0.0000)
   6 Na    10.728337    9.303801    8.726284    ( 0.0000,  0.0000,  0.0000)
   7 Na     9.239135   11.188091    9.664721    ( 0.0000,  0.0000,  0.0000)

Unit cell:
           periodic     x           y           z      points  spacing
  1. axis:    no    20.000000    0.000000    0.000000    80     0.2500
  2. axis:    no     0.000000   20.000000    0.000000    80     0.2500
  3. axis:    no     0.000000    0.000000   20.000000    80     0.2500

  Lengths:  20.000000  20.000000  20.000000
  Angles:   90.000000  90.000000  90.000000

Effective grid spacing dv^(1/3) = 0.2500

                     log10-error:    total        iterations:
           time      wfs    density  energy       fermi  poisson
iter:   1  10:47:51          +inf    77.400000    0      1      
iter:   2  10:47:52         -0.31    80.220210    23     1      
iter:   3  10:47:54         -0.61    80.688128    7      1      
iter:   4  10:47:55         -0.83    80.971957    5      1      
iter:   5  10:47:57         -1.21    81.035915    2      1      
iter:   6  10:47:58         -1.81    81.038852    2      1      
iter:   7  10:48:00         -2.13    81.039179    1      1      
iter:   8  10:48:02         -2.39    81.039248    1      1      
iter:   9  10:48:03         -2.77    81.039257    1      1      
iter:  10  10:48:05         -3.24    81.039259    1      1      
iter:  11  10:48:06         -3.49    81.039261    1      1      
iter:  12  10:48:08         -3.99    81.039261    1      1      
iter:  13  10:48:09         -4.25    81.039261    1      1      

Converged after 13 iterations.

Dipole moment: (0.134545, 0.991265, 0.616930) |e|*Ang

Energy contributions relative to reference atoms: (reference = -35189.668405)

Kinetic:       +265.342600
Potential:     -153.201888
External:        +0.000000
XC:             -52.974065
Entropy (-ST):   -0.000001
Local:          +21.872614
--------------------------
Free energy:    +81.039261
Extrapolated:   +81.039261

Fermi level: -3.29722

 Band  Eigenvalues  Occupancy
    0     -6.38508    2.00000
    1     -4.50513    2.00000
    2     -4.37049    2.00000
    3     -4.05933    2.00000
    4     -2.53522    0.00000
    5     -1.61761    0.00000
    6     -1.37271    0.00000
    7     -0.87014    0.00000
    8     -0.66202    0.00000
    9      0.35741    0.00000

Gap: 1.524 eV
Transition (v -> c):
  (s=0, k=0, n=3, [0.00, 0.00, 0.00]) -> (s=0, k=0, n=4, [0.00, 0.00, 0.00])

Forces in eV/Ang:
  0 Na    8.18465    7.99401    5.59529
  1 Na   14.21681  -19.58726   18.69247
  2 Na   -9.60639   13.48001   27.78366
  3 Na   -2.06705    7.21238  -42.04803
  4 Na   -9.30397  -35.74628    1.27833
  5 Na   -4.52294    4.64412   18.34155
  6 Na    6.10057   11.74946  -27.64317
  7 Na   -3.00157   10.25077   -1.99831

System changes: positions 

Initializing position-dependent things.

Density initialized from wave functions
             .------------------------------------------------.  
            /|                                                |  
           / |                                                |  
          /  |                                                |  
         /   |                                                |  
        /    |                                                |  
       /     |                                                |  
      /      |                                                |  
     /       |                                                |  
    /        |                                                |  
   /         |                                                |  
  /          |                                                |  
 *           |                                                |  
 |           |                                                |  
 |           |                                                |  
 |           |                                                |  
 |           |                                                |  
 |           |               Na                               |  
 |           |                Na   Na                         |  
 |           |               Na                               |  
 |           |              Na   Na                           |  
 |           |               Na  Na                           |  
 |           |                                                |  
 |           |                                                |  
 |           |                                                |  
 |           .------------------------------------------------.  
 |          /                                                /   
 |         /                                                /    
 |        /                                                /     
 |       /                                                /      
 |      /                                                /       
 |     /                                                /        
 |    /                                                /         
 |   /                                                /          
 |  /                                                /           
 | /                                                /            
 |/                                                /             
 *------------------------------------------------*              

Positions:
   0 Na    11.170808   10.436091   10.143610    ( 0.0000,  0.0000,  0.0000)
   1 Na    10.956266    8.716683    9.581899    ( 0.0000,  0.0000,  0.0000)
   2 Na     9.003821    9.293283   10.279342    ( 0.0000,  0.0000,  0.0000)
   3 Na     9.284583    9.133947    8.722320    ( 0.0000,  0.0000,  0.0000)
   4 Na     9.095855    8.650606    9.607464    ( 0.0000,  0.0000,  0.0000)
   5 Na     8.846994    9.752630   11.362885    ( 0.0000,  0.0000,  0.0000)
   6 Na    10.757996    9.360922    8.591894    ( 0.0000,  0.0000,  0.0000)
   7 Na     9.224543   11.237926    9.655006    ( 0.0000,  0.0000,  0.0000)

Unit cell:
           periodic     x           y           z      points  spacing
  1. axis:    no    20.000000    0.000000    0.000000    80     0.2500
  2. axis:    no     0.000000   20.000000    0.000000    80     0.2500
  3. axis:    no     0.000000    0.000000   20.000000    80     0.2500

  Lengths:  20.000000  20.000000  20.000000
  Angles:   90.000000  90.000000  90.000000

Effective grid spacing dv^(1/3) = 0.2500

                     log10-error:    total        iterations:
           time      wfs    density  energy       fermi  poisson
iter:   1  10:48:12          +inf    53.022927    4      1      
iter:   2  10:48:13         -0.73    53.284475    4      1      
iter:   3  10:48:15         -0.96    53.357904    1      1      
iter:   4  10:48:17         -1.29    53.377134    2      1      
iter:   5  10:48:18         -1.80    53.378749    2      1      
iter:   6  10:48:20         -2.13    53.378995    1      1      
iter:   7  10:48:21         -2.42    53.379071    1      1      
iter:   8  10:48:23         -2.87    53.379080    1      1      
iter:   9  10:48:24         -3.28    53.379081    1      1      
iter:  10  10:48:26         -3.65    53.379081    1      1      
iter:  11  10:48:28         -4.08    53.379081    1      1      

Converged after 11 iterations.

Dipole moment: (0.240033, 0.897809, 0.519437) |e|*Ang

Energy contributions relative to reference atoms: (reference = -35189.668405)

Kinetic:       +237.058180
Potential:     -149.663497
External:        +0.000000
XC:             -46.955807
Entropy (-ST):   -0.000001
Local:          +12.940206
--------------------------
Free energy:    +53.379080
Extrapolated:   +53.379081

Fermi level: -3.30559

 Band  Eigenvalues  Occupancy
    0     -6.44227    2.00000
    1     -4.36004    2.00000
    2     -4.16551    2.00000
    3     -4.06144    2.00000
    4     -2.55573    0.00000
    5     -1.62747    0.00000
    6     -1.37346    0.00000
    7     -0.96737    0.00000
    8     -0.62202    0.00000
    9      0.40078    0.00000

Gap: 1.506 eV
Transition (v -> c):
  (s=0, k=0, n=3, [0.00, 0.00, 0.00]) -> (s=0, k=0, n=4, [0.00, 0.00, 0.00])

Forces in eV/Ang:
  0 Na    6.75753    6.66789    4.76982
  1 Na   10.35850  -13.51772   11.30891
  2 Na   -5.49238    9.07599   10.64417
  3 Na   -5.07280    6.29267  -25.39310
  4 Na   -7.04721  -30.01309   -0.41515
  5 Na   -3.87102    5.47301   18.97888
  6 Na    6.94990    7.18500  -18.06588
  7 Na   -2.58253    8.83810   -1.82909

System changes: positions 

Initializing position-dependent things.

Density initialized from wave functions
             .------------------------------------------------.  
            /|                                                |  
           / |                                                |  
          /  |                                                |  
         /   |                                                |  
        /    |                                                |  
       /     |                                                |  
      /      |                                                |  
     /       |                                                |  
    /        |                                                |  
   /         |                                                |  
  /          |                                                |  
 *           |                                                |  
 |           |                                                |  
 |           |                                                |  
 |           |                                                |  
 |           |                                                |  
 |           |              Na                                |  
 |           |               Naa   Na                         |  
 |           |                                                |  
 |           |              Na   Na                           |  
 |           |               Na  Na                           |  
 |           |                                                |  
 |           |                                                |  
 |           |                                                |  
 |           .------------------------------------------------.  
 |          /                                                /   
 |         /                                                /    
 |        /                                                /     
 |       /                                                /      
 |      /                                                /       
 |     /                                                /        
 |    /                                                /         
 |   /                                                /          
 |  /                                                /           
 | /                                                /            
 |/                                                /             
 *------------------------------------------------*              

Positions:
   0 Na    11.206941   10.471650   10.168902    ( 0.0000,  0.0000,  0.0000)
   1 Na    11.013607    8.640644    9.648208    ( 0.0000,  0.0000,  0.0000)
   2 Na     8.971000    9.344721   10.353663    ( 0.0000,  0.0000,  0.0000)
   3 Na     9.262223    9.167117    8.573340    ( 0.0000,  0.0000,  0.0000)
   4 Na     9.057275    8.490828    9.607325    ( 0.0000,  0.0000,  0.0000)
   5 Na     8.826489    9.779576   11.458939    ( 0.0000,  0.0000,  0.0000)
   6 Na    10.792450    9.402903    8.488558    ( 0.0000,  0.0000,  0.0000)
   7 Na     9.210881   11.284655    9.645479    ( 0.0000,  0.0000,  0.0000)

Unit cell:
           periodic     x           y           z      points  spacing
  1. axis:    no    20.000000    0.000000    0.000000    80     0.2500
  2. axis:    no     0.000000   20.000000    0.000000    80     0.2500
  3. axis:    no     0.000000    0.000000   20.000000    80     0.2500

  Lengths:  20.000000  20.000000  20.000000
  Angles:   90.000000  90.000000  90.000000

Effective grid spacing dv^(1/3) = 0.2500

                     log10-error:    total        iterations:
           time      wfs    density  energy       fermi  poisson
iter:   1  10:48:30          +inf    37.369106    2      1      
iter:   2  10:48:32         -0.95    37.439623    2      1      
iter:   3  10:48:33         -1.13    37.481813    3      1      
iter:   4  10:48:35         -1.69    37.484410    2      1      
iter:   5  10:48:36         -2.03    37.484880    2      1      
iter:   6  10:48:38         -2.32    37.484985    2      1      
iter:   7  10:48:39         -2.67    37.485010    1      1      
iter:   8  10:48:41         -3.18    37.485013    1      1      
iter:   9  10:48:43         -3.49    37.485013    1      1      
iter:  10  10:48:44         -3.88    37.485013    1      1      
iter:  11  10:48:46         -4.34    37.485013    0      1      

Converged after 11 iterations.

Dipole moment: (0.261780, 0.727282, 0.404558) |e|*Ang

Energy contributions relative to reference atoms: (reference = -35189.668405)

Kinetic:       +220.204297
Potential:     -147.656537
External:        +0.000000
XC:             -43.071490
Entropy (-ST):   -0.000002
Local:           +8.008744
--------------------------
Free energy:    +37.485012
Extrapolated:   +37.485013

Fermi level: -3.26118

 Band  Eigenvalues  Occupancy
    0     -6.52743    2.00000
    1     -4.24063    2.00000
    2     -4.04943    2.00000
    3     -3.98906    2.00000
    4     -2.54663    0.00000
    5     -1.60583    0.00000
    6     -1.29970    0.00000
    7     -0.95219    0.00000
    8     -0.54644    0.00000
    9      0.52118    0.00000

Gap: 1.442 eV
Transition (v -> c):
  (s=0, k=0, n=3, [0.00, 0.00, 0.00]) -> (s=0, k=0, n=4, [0.00, 0.00, 0.00])

Forces in eV/Ang:
  0 Na    5.50398    5.52072    4.05897
  1 Na    8.21305   -9.92367    7.50679
  2 Na   -3.66245    5.14841    2.41974
  3 Na   -6.14867    4.26586  -16.67557
  4 Na   -5.64144  -22.58736   -0.81086
  5 Na   -3.10825    5.23514   17.87020
  6 Na    7.00742    4.81418  -12.69400
  7 Na   -2.16467    7.52632   -1.67445

System changes: positions 

Initializing position-dependent things.

Density initialized from wave functions
             .------------------------------------------------.  
            /|                                                |  
           / |                                                |  
          /  |                                                |  
         /   |                                                |  
        /    |                                                |  
       /     |                                                |  
      /      |                                                |  
     /       |                                                |  
    /        |                                                |  
   /         |                                                |  
  /          |                                                |  
 *           |                                                |  
 |           |                                                |  
 |           |                                                |  
 |           |                                                |  
 |           |                                                |  
 |           |              Na                                |  
 |           |               Naa   Na                         |  
 |           |                                                |  
 |           |              Na   Na                           |  
 |           |               Na  Na                           |  
 |           |                                                |  
 |           |                                                |  
 |           |                                                |  
 |           .------------------------------------------------.  
 |          /                                                /   
 |         /                                                /    
 |        /                                                /     
 |       /                                                /      
 |      /                                                /       
 |     /                                                /        
 |    /                                                /         
 |   /                                                /          
 |  /                                                /           
 | /                                                /            
 |/                                                /             
 *------------------------------------------------*              

Positions:
   0 Na    11.244651   10.509191   10.196160    ( 0.0000,  0.0000,  0.0000)
   1 Na    11.070812    8.568884    9.705545    ( 0.0000,  0.0000,  0.0000)
   2 Na     8.943007    9.387132   10.391363    ( 0.0000,  0.0000,  0.0000)
   3 Na     9.226799    9.198865    8.445276    ( 0.0000,  0.0000,  0.0000)
   4 Na     9.018207    8.330580    9.603470    ( 0.0000,  0.0000,  0.0000)
   5 Na     8.805085    9.812795   11.573394    ( 0.0000,  0.0000,  0.0000)
   6 Na    10.836048    9.439484    8.394611    ( 0.0000,  0.0000,  0.0000)
   7 Na     9.196254   11.335164    9.634596    ( 0.0000,  0.0000,  0.0000)

Unit cell:
           periodic     x           y           z      points  spacing
  1. axis:    no    20.000000    0.000000    0.000000    80     0.2500
  2. axis:    no     0.000000   20.000000    0.000000    80     0.2500
  3. axis:    no     0.000000    0.000000   20.000000    80     0.2500

  Lengths:  20.000000  20.000000  20.000000
  Angles:   90.000000  90.000000  90.000000

Effective grid spacing dv^(1/3) = 0.2500

                     log10-error:    total        iterations:
           time      wfs    density  energy       fermi  poisson
iter:   1  10:48:48          +inf    25.847618    3      1      
iter:   2  10:48:50         -1.00    25.908486    3      1      
iter:   3  10:48:51         -1.20    25.942759    3      1      
iter:   4  10:48:53         -1.75    25.945060    2      1      
iter:   5  10:48:54         -2.16    25.945329    2      1      
iter:   6  10:48:56         -2.40    25.945417    2      1      
iter:   7  10:48:58         -2.81    25.945433    1      1      
iter:   8  10:48:59         -3.40    25.945434    1      1      
iter:   9  10:49:01         -3.66    25.945434    1      1      
iter:  10  10:49:02         -4.11    25.945434    1      1      

Converged after 10 iterations.

Dipole moment: (0.206817, 0.493893, 0.296145) |e|*Ang

Energy contributions relative to reference atoms: (reference = -35189.668405)

Kinetic:       +204.388946
Potential:     -143.534793
External:        +0.000000
XC:             -39.739985
Entropy (-ST):   -0.000002
Local:           +4.831267
--------------------------
Free energy:    +25.945433
Extrapolated:   +25.945434

Fermi level: -3.15146

 Band  Eigenvalues  Occupancy
    0     -6.56919    2.00000
    1     -4.15555    2.00000
    2     -3.92960    2.00000
    3     -3.89062    2.00000
    4     -2.43135    0.00000
    5     -1.56531    0.00000
    6     -1.21666    0.00000
    7     -0.86427    0.00000
    8     -0.45557    0.00000
    9      0.66347    0.00000

Gap: 1.459 eV
Transition (v -> c):
  (s=0, k=0, n=3, [0.00, 0.00, 0.00]) -> (s=0, k=0, n=4, [0.00, 0.00, 0.00])

Forces in eV/Ang:
  0 Na    4.39023    4.44834    3.35854
  1 Na    6.49716   -7.44475    5.31445
  2 Na   -2.74211    2.82666   -0.91401
  3 Na   -5.98241    2.74199  -11.49377
  4 Na   -4.46062  -16.49130   -0.73414
  5 Na   -2.24193    4.24485   15.12817
  6 Na    6.30401    3.40825   -9.14199
  7 Na   -1.76248    6.26578   -1.51529

System changes: positions 

Initializing position-dependent things.

Density initialized from wave functions
             .------------------------------------------------.  
            /|                                                |  
           / |                                                |  
          /  |                                                |  
         /   |                                                |  
        /    |                                                |  
       /     |                                                |  
      /      |                                                |  
     /       |                                                |  
    /        |                                                |  
   /         |                                                |  
  /          |                                                |  
 *           |                                                |  
 |           |                                                |  
 |           |                                                |  
 |           |                                                |  
 |           |              Na                                |  
 |           |                                                |  
 |           |               Naa   Na                         |  
 |           |                                                |  
 |           |              Na   Na                           |  
 |           |               Na  Na                           |  
 |           |                                                |  
 |           |                                                |  
 |           |                                                |  
 |           .------------------------------------------------.  
 |          /                                                /   
 |         /                                                /    
 |        /                                                /     
 |       /                                                /      
 |      /                                                /       
 |     /                                                /        
 |    /                                                /         
 |   /                                                /          
 |  /                                                /           
 | /                                                /            
 |/                                                /             
 *------------------------------------------------*              

Positions:
   0 Na    11.282980   10.547764   10.224804    ( 0.0000,  0.0000,  0.0000)
   1 Na    11.127774    8.501256    9.755752    ( 0.0000,  0.0000,  0.0000)
   2 Na     8.918008    9.419145   10.399522    ( 0.0000,  0.0000,  0.0000)
   3 Na     9.180639    9.226581    8.334817    ( 0.0000,  0.0000,  0.0000)
   4 Na     8.979084    8.177977    9.597587    ( 0.0000,  0.0000,  0.0000)
   5 Na     8.784292    9.849276   11.700257    ( 0.0000,  0.0000,  0.0000)
   6 Na    10.887022    9.471667    8.309346    ( 0.0000,  0.0000,  0.0000)
   7 Na     9.181066   11.388428    9.622340    ( 0.0000,  0.0000,  0.0000)

Unit cell:
           periodic     x           y           z      points  spacing
  1. axis:    no    20.000000    0.000000    0.000000    80     0.2500
  2. axis:    no     0.000000   20.000000    0.000000    80     0.2500
  3. axis:    no     0.000000    0.000000   20.000000    80     0.2500

  Lengths:  20.000000  20.000000  20.000000
  Angles:   90.000000  90.000000  90.000000

Effective grid spacing dv^(1/3) = 0.2500

                     log10-error:    total        iterations:
           time      wfs    density  energy       fermi  poisson
iter:   1  10:49:05          +inf    17.358879    4      1      
iter:   2  10:49:06         -1.11    17.400738    3      1      
iter:   3  10:49:08         -1.32    17.422759    3      1      
iter:   4  10:49:09         -1.81    17.424931    2      1      
iter:   5  10:49:11         -2.31    17.425101    2      1      
iter:   6  10:49:12         -2.53    17.425179    1      1      
iter:   7  10:49:14         -3.11    17.425185    1      1      
iter:   8  10:49:16         -3.51    17.425186    1      1      
iter:   9  10:49:17         -3.91    17.425186    1      1      
iter:  10  10:49:19         -4.25    17.425186    1      1      

Converged after 10 iterations.

Dipole moment: (0.138214, 0.307251, 0.228611) |e|*Ang

Energy contributions relative to reference atoms: (reference = -35189.668405)

Kinetic:       +186.636915
Potential:     -135.469384
External:        +0.000000
XC:             -36.570496
Entropy (-ST):   -0.000001
Local:           +2.828152
--------------------------
Free energy:    +17.425186
Extrapolated:   +17.425186

Fermi level: -3.00551

 Band  Eigenvalues  Occupancy
    0     -6.54713    2.00000
    1     -4.08921    2.00000
    2     -3.84076    2.00000
    3     -3.75639    2.00000
    4     -2.26318    0.00000
    5     -1.52607    0.00000
    6     -1.17778    0.00000
    7     -0.75446    0.00000
    8     -0.37821    0.00000
    9      0.77910    0.00000

Gap: 1.493 eV
Transition (v -> c):
  (s=0, k=0, n=3, [0.00, 0.00, 0.00]) -> (s=0, k=0, n=4, [0.00, 0.00, 0.00])

Forces in eV/Ang:
  0 Na    3.50336    3.56838    2.76544
  1 Na    5.02850   -5.72377    3.95673
  2 Na   -2.27657    1.76769   -1.41005
  3 Na   -5.14259    1.81362   -8.31157
  4 Na   -3.42978  -12.15027   -0.51044
  5 Na   -1.45847    3.01724   11.61537
  6 Na    5.21071    2.50068   -6.76286
  7 Na   -1.43132    5.21011   -1.34480

System changes: positions 

Initializing position-dependent things.

Density initialized from wave functions
             .------------------------------------------------.  
            /|                                                |  
           / |                                                |  
          /  |                                                |  
         /   |                                                |  
        /    |                                                |  
       /     |                                                |  
      /      |                                                |  
     /       |                                                |  
    /        |                                                |  
   /         |                                                |  
  /          |                                                |  
 *           |                                                |  
 |           |                                                |  
 |           |                                                |  
 |           |                                                |  
 |           |              Na                                |  
 |           |                                                |  
 |           |              NaNa   Na                         |  
 |           |                                                |  
 |           |              Na   Na                           |  
 |           |               Na   Na                          |  
 |           |                                                |  
 |           |                                                |  
 |           |                                                |  
 |           .------------------------------------------------.  
 |          /                                                /   
 |         /                                                /    
 |        /                                                /     
 |       /                                                /      
 |      /                                                /       
 |     /                                                /        
 |    /                                                /         
 |   /                                                /          
 |  /                                                /           
 | /                                                /            
 |/                                                /             
 *------------------------------------------------*              

Positions:
   0 Na    11.321446   10.586795   10.254483    ( 0.0000,  0.0000,  0.0000)
   1 Na    11.183995    8.436883    9.801108    ( 0.0000,  0.0000,  0.0000)
   2 Na     8.893924    9.442616   10.389092    ( 0.0000,  0.0000,  0.0000)
   3 Na     9.127120    9.249696    8.237375    ( 0.0000,  0.0000,  0.0000)
   4 Na     8.940524    8.036101    9.591254    ( 0.0000,  0.0000,  0.0000)
   5 Na     8.765608    9.885417   11.831251    ( 0.0000,  0.0000,  0.0000)
   6 Na    10.942728    9.500648    8.231178    ( 0.0000,  0.0000,  0.0000)
   7 Na     9.165543   11.443951    9.608687    ( 0.0000,  0.0000,  0.0000)

Unit cell:
           periodic     x           y           z      points  spacing
  1. axis:    no    20.000000    0.000000    0.000000    80     0.2500
  2. axis:    no     0.000000   20.000000    0.000000    80     0.2500
  3. axis:    no     0.000000    0.000000   20.000000    80     0.2500

  Lengths:  20.000000  20.000000  20.000000
  Angles:   90.000000  90.000000  90.000000

Effective grid spacing dv^(1/3) = 0.2500

                     log10-error:    total        iterations:
           time      wfs    density  energy       fermi  poisson
iter:   1  10:49:21          +inf    11.121532    4      1      
iter:   2  10:49:23         -1.25    11.147980    3      1      
iter:   3  10:49:24         -1.46    11.161996    3      1      
iter:   4  10:49:26         -1.91    11.163844    2      1      
iter:   5  10:49:27         -2.46    11.163964    1      1      
iter:   6  10:49:29         -2.66    11.164031    1      1      
iter:   7  10:49:30         -3.30    11.164034    1      1      
iter:   8  10:49:32         -3.66    11.164034    1      1      
iter:   9  10:49:34         -3.96    11.164035    1      1      
iter:  10  10:49:35         -4.30    11.164035    1      1      

Converged after 10 iterations.

Dipole moment: (0.083453, 0.189440, 0.193605) |e|*Ang

Energy contributions relative to reference atoms: (reference = -35189.668405)

Kinetic:       +167.932916
Potential:     -124.836337
External:        +0.000000
XC:             -33.540494
Entropy (-ST):   -0.000001
Local:           +1.607950
--------------------------
Free energy:    +11.164034
Extrapolated:   +11.164035

Fermi level: -2.86111

 Band  Eigenvalues  Occupancy
    0     -6.46629    2.00000
    1     -4.02488    2.00000
    2     -3.76755    2.00000
    3     -3.62885    2.00000
    4     -2.09641    0.00000
    5     -1.49299    0.00000
    6     -1.17551    0.00000
    7     -0.68508    0.00000
    8     -0.30848    0.00000
    9      0.79143    0.00000

Gap: 1.532 eV
Transition (v -> c):
  (s=0, k=0, n=3, [0.00, 0.00, 0.00]) -> (s=0, k=0, n=4, [0.00, 0.00, 0.00])

Forces in eV/Ang:
  0 Na    2.80723    2.86471    2.29182
  1 Na    3.82902   -4.47814    3.03277
  2 Na   -1.97039    1.28935   -0.86419
  3 Na   -4.16884    1.26795   -6.28931
  4 Na   -2.58767   -9.16943   -0.28704
  5 Na   -0.86887    1.99566    8.39823
  6 Na    4.12825    1.86956   -5.11417
  7 Na   -1.16695    4.36226   -1.16762

System changes: positions 

Initializing position-dependent things.

Density initialized from wave functions
             .------------------------------------------------.  
            /|                                                |  
           / |                                                |  
          /  |                                                |  
         /   |                                                |  
        /    |                                                |  
       /     |                                                |  
      /      |                                                |  
     /       |                                                |  
    /        |                                                |  
   /         |                                                |  
  /          |                                                |  
 *           |                                                |  
 |           |                                                |  
 |           |                                                |  
 |           |                                                |  
 |           |              Na                                |  
 |           |                                                |  
 |           |              NaNa   Na                         |  
 |           |                                                |  
 |           |              Na    Na                          |  
 |           |               Na   Na                          |  
 |           |                                                |  
 |           |                                                |  
 |           |                                                |  
 |           .------------------------------------------------.  
 |          /                                                /   
 |         /                                                /    
 |        /                                                /     
 |       /                                                /      
 |      /                                                /       
 |     /                                                /        
 |    /                                                /         
 |   /                                                /          
 |  /                                                /           
 | /                                                /            
 |/                                                /             
 *------------------------------------------------*              

Positions:
   0 Na    11.359491   10.625595   10.284772    ( 0.0000,  0.0000,  0.0000)
   1 Na    11.238095    8.375432    9.843016    ( 0.0000,  0.0000,  0.0000)
   2 Na     8.869306    9.460503   10.371568    ( 0.0000,  0.0000,  0.0000)
   3 Na     9.070255    9.268655    8.149540    ( 0.0000,  0.0000,  0.0000)
   4 Na     8.903643    7.905986    9.585749    ( 0.0000,  0.0000,  0.0000)
   5 Na     8.750354    9.917806   11.956708    ( 0.0000,  0.0000,  0.0000)
   6 Na    10.999849    9.527057    8.159238    ( 0.0000,  0.0000,  0.0000)
   7 Na     9.149928   11.501099    9.593833    ( 0.0000,  0.0000,  0.0000)

Unit cell:
           periodic     x           y           z      points  spacing
  1. axis:    no    20.000000    0.000000    0.000000    80     0.2500
  2. axis:    no     0.000000   20.000000    0.000000    80     0.2500
  3. axis:    no     0.000000    0.000000   20.000000    80     0.2500

  Lengths:  20.000000  20.000000  20.000000
  Angles:   90.000000  90.000000  90.000000

Effective grid spacing dv^(1/3) = 0.2500

                     log10-error:    total        iterations:
           time      wfs    density  energy       fermi  poisson
iter:   1  10:49:38          +inf     6.605379    4      1      
iter:   2  10:49:39         -1.37     6.621959    3      1      
iter:   3  10:49:41         -1.59     6.631171    2      1      
iter:   4  10:49:42         -2.03     6.632609    2      1      
iter:   5  10:49:44         -2.58     6.632697    1      1      
iter:   6  10:49:45         -2.77     6.632748    1      1      
iter:   7  10:49:47         -3.41     6.632751    1      1      
iter:   8  10:49:48         -3.79     6.632751    1      1      
iter:   9  10:49:50         -4.01     6.632751    0      1      

Converged after 9 iterations.

Dipole moment: (0.043634, 0.120696, 0.178317) |e|*Ang

Energy contributions relative to reference atoms: (reference = -35189.668405)

Kinetic:       +149.978379
Potential:     -113.506731
External:        +0.000000
XC:             -30.755618
Entropy (-ST):   -0.000001
Local:           +0.916721
--------------------------
Free energy:     +6.632751
Extrapolated:    +6.632751

Fermi level: -2.73995

 Band  Eigenvalues  Occupancy
    0     -6.34594    2.00000
    1     -3.95868    2.00000
    2     -3.70050    2.00000
    3     -3.52315    2.00000
    4     -1.95817    0.00000
    5     -1.45992    0.00000
    6     -1.18968    0.00000
    7     -0.67891    0.00000
    8     -0.24183    0.00000
    9      0.78758    0.00000

Gap: 1.565 eV
Transition (v -> c):
  (s=0, k=0, n=3, [0.00, 0.00, 0.00]) -> (s=0, k=0, n=4, [0.00, 0.00, 0.00])

Forces in eV/Ang:
  0 Na    2.25942    2.29273    1.90594
  1 Na    2.89747   -3.52616    2.35794
  2 Na   -1.69425    0.98198   -0.32339
  3 Na   -3.33144    0.92822   -4.94137
  4 Na   -1.93707   -7.09106   -0.13329
  5 Na   -0.48238    1.32154    6.04578
  6 Na    3.23877    1.41675   -3.91040
  7 Na   -0.95101    3.67706   -1.00466

System changes: positions 

Initializing position-dependent things.

Density initialized from wave functions
             .------------------------------------------------.  
            /|                                                |  
           / |                                                |  
          /  |                                                |  
         /   |                                                |  
        /    |                                                |  
       /     |                                                |  
      /      |                                                |  
     /       |                                                |  
    /        |                                                |  
   /         |                                                |  
  /          |                                                |  
 *           |                                                |  
 |           |                                                |  
 |           |                                                |  
 |           |                                                |  
 |           |              Na                                |  
 |           |                                                |  
 |           |              NaNa   Na                         |  
 |           |                                                |  
 |           |             Na     Na                          |  
 |           |               Na   Na                          |  
 |           |                                                |  
 |           |                                                |  
 |           |                                                |  
 |           .------------------------------------------------.  
 |          /                                                /   
 |         /                                                /    
 |        /                                                /     
 |       /                                                /      
 |      /                                                /       
 |     /                                                /        
 |    /                                                /         
 |   /                                                /          
 |  /                                                /           
 | /                                                /            
 |/                                                /             
 *------------------------------------------------*              

Positions:
   0 Na    11.395737   10.662595   10.314508    ( 0.0000,  0.0000,  0.0000)
   1 Na    11.287569    8.318267    9.881302    ( 0.0000,  0.0000,  0.0000)
   2 Na     8.844242    9.475117   10.355895    ( 0.0000,  0.0000,  0.0000)
   3 Na     9.014823    9.284116    8.070437    ( 0.0000,  0.0000,  0.0000)
   4 Na     8.870211    7.789477    9.581831    ( 0.0000,  0.0000,  0.0000)
   5 Na     8.739265    9.944135   12.067434    ( 0.0000,  0.0000,  0.0000)
   6 Na    11.054270    9.550679    8.094470    ( 0.0000,  0.0000,  0.0000)
   7 Na     9.134833   11.557780    9.578522    ( 0.0000,  0.0000,  0.0000)

Unit cell:
           periodic     x           y           z      points  spacing
  1. axis:    no    20.000000    0.000000    0.000000    80     0.2500
  2. axis:    no     0.000000   20.000000    0.000000    80     0.2500
  3. axis:    no     0.000000    0.000000   20.000000    80     0.2500

  Lengths:  20.000000  20.000000  20.000000
  Angles:   90.000000  90.000000  90.000000

Effective grid spacing dv^(1/3) = 0.2500

                     log10-error:    total        iterations:
           time      wfs    density  energy       fermi  poisson
iter:   1  10:49:52          +inf     3.402565    3      1      
iter:   2  10:49:54         -1.50     3.412316    2      1      
iter:   3  10:49:55         -1.71     3.418168    2      1      
iter:   4  10:49:57         -2.16     3.419138    2      1      
iter:   5  10:49:59         -2.69     3.419199    1      1      
iter:   6  10:50:00         -2.89     3.419234    1      1      
iter:   7  10:50:02         -3.51     3.419235    1      1      
iter:   8  10:50:03         -3.90     3.419236    1      1      
iter:   9  10:50:05         -4.10     3.419236    1      1      

Converged after 9 iterations.

Dipole moment: (0.015190, 0.081320, 0.173901) |e|*Ang

Energy contributions relative to reference atoms: (reference = -35189.668405)

Kinetic:       +134.037742
Potential:     -102.852261
External:        +0.000000
XC:             -28.320305
Entropy (-ST):   -0.000001
Local:           +0.554060
--------------------------
Free energy:     +3.419235
Extrapolated:    +3.419236

Fermi level: -2.65291

 Band  Eigenvalues  Occupancy
    0     -6.21068    2.00000
    1     -3.89328    2.00000
    2     -3.64183    2.00000
    3     -3.43968    2.00000
    4     -1.86701    0.00000
    5     -1.42183    0.00000
    6     -1.20686    0.00000
    7     -0.72447    0.00000
    8     -0.18142    0.00000
    9      0.80802    0.00000

Gap: 1.573 eV
Transition (v -> c):
  (s=0, k=0, n=3, [0.00, 0.00, 0.00]) -> (s=0, k=0, n=4, [0.00, 0.00, 0.00])

Forces in eV/Ang:
  0 Na    1.83755    1.84127    1.59488
  1 Na    2.21027   -2.80121    1.86220
  2 Na   -1.43730    0.72005   -0.06715
  3 Na   -2.69864    0.70140   -3.99115
  4 Na   -1.46048   -5.61873   -0.05388
  5 Na   -0.24881    0.93193    4.54531
  6 Na    2.57139    1.09539   -3.02152
  7 Na   -0.77565    3.12790   -0.87285

System changes: positions 

Initializing position-dependent things.

Density initialized from wave functions
             .------------------------------------------------.  
            /|                                                |  
           / |                                                |  
          /  |                                                |  
         /   |                                                |  
        /    |                                                |  
       /     |                                                |  
      /      |                                                |  
     /       |                                                |  
    /        |                                                |  
   /         |                                                |  
  /          |                                                |  
 *           |                                                |  
 |           |                                                |  
 |           |                                                |  
 |           |                                                |  
 |           |              Na                                |  
 |           |                                                |  
 |           |              NaNa   Na                         |  
 |           |                                                |  
 |           |             Na     Na                          |  
 |           |               Na   Na                          |  
 |           |                                                |  
 |           |                                                |  
 |           |                                                |  
 |           .------------------------------------------------.  
 |          /                                                /   
 |         /                                                /    
 |        /                                                /     
 |       /                                                /      
 |      /                                                /       
 |     /                                                /        
 |    /                                                /         
 |   /                                                /          
 |  /                                                /           
 | /                                                /            
 |/                                                /             
 *------------------------------------------------*              

Positions:
   0 Na    11.431463   10.698937   10.344635    ( 0.0000,  0.0000,  0.0000)
   1 Na    11.333953    8.262921    9.918035    ( 0.0000,  0.0000,  0.0000)
   2 Na     8.817837    9.488553   10.345129    ( 0.0000,  0.0000,  0.0000)
   3 Na     8.960326    9.297760    7.994563    ( 0.0000,  0.0000,  0.0000)
   4 Na     8.839178    7.679592    9.579372    ( 0.0000,  0.0000,  0.0000)
   5 Na     8.731537    9.965736   12.166692    ( 0.0000,  0.0000,  0.0000)
   6 Na    11.106872    9.572820    8.033500    ( 0.0000,  0.0000,  0.0000)
   7 Na     9.119797   11.615867    9.562434    ( 0.0000,  0.0000,  0.0000)

Unit cell:
           periodic     x           y           z      points  spacing
  1. axis:    no    20.000000    0.000000    0.000000    80     0.2500
  2. axis:    no     0.000000   20.000000    0.000000    80     0.2500
  3. axis:    no     0.000000    0.000000   20.000000    80     0.2500

  Lengths:  20.000000  20.000000  20.000000
  Angles:   90.000000  90.000000  90.000000

Effective grid spacing dv^(1/3) = 0.2500

                     log10-error:    total        iterations:
           time      wfs    density  energy       fermi  poisson
iter:   1  10:50:07          +inf     0.989077    3      1      
iter:   2  10:50:09         -1.61     0.995347    2      1      
iter:   3  10:50:10         -1.81     0.999443    2      1      
iter:   4  10:50:12         -2.26     1.000115    2      1      
iter:   5  10:50:13         -2.76     1.000166    1      1      
iter:   6  10:50:15         -2.98     1.000190    1      1      
iter:   7  10:50:16         -3.56     1.000192    1      1      
iter:   8  10:50:18         -3.96     1.000192    1      1      
iter:   9  10:50:20         -4.16     1.000192    1      1      

Converged after 9 iterations.

Dipole moment: (-0.007082, 0.057400, 0.174942) |e|*Ang

Energy contributions relative to reference atoms: (reference = -35189.668405)

Kinetic:       +119.640225
Potential:      -92.877661
External:        +0.000000
XC:             -26.117800
Entropy (-ST):   -0.000001
Local:           +0.355429
--------------------------
Free energy:     +1.000192
Extrapolated:    +1.000192

Fermi level: -2.59513

 Band  Eigenvalues  Occupancy
    0     -6.06846    2.00000
    1     -3.82863    2.00000
    2     -3.58904    2.00000
    3     -3.37168    2.00000
    4     -1.81922    0.00000
    5     -1.38431    0.00000
    6     -1.22321    0.00000
    7     -0.79797    0.00000
    8     -0.11493    0.00000
    9      0.84630    0.00000

Gap: 1.552 eV
Transition (v -> c):
  (s=0, k=0, n=3, [0.00, 0.00, 0.00]) -> (s=0, k=0, n=4, [0.00, 0.00, 0.00])

Forces in eV/Ang:
  0 Na    1.49529    1.47144    1.33158
  1 Na    1.68832   -2.22135    1.47819
  2 Na   -1.20244    0.48490   -0.01467
  3 Na   -2.20666    0.53206   -3.24268
  4 Na   -1.10043   -4.48443   -0.02424
  5 Na   -0.09922    0.69992    3.56298
  6 Na    2.04982    0.85681   -2.32445
  7 Na   -0.62651    2.66047   -0.76686

System changes: positions 

Initializing position-dependent things.

Density initialized from wave functions
             .------------------------------------------------.  
            /|                                                |  
           / |                                                |  
          /  |                                                |  
         /   |                                                |  
        /    |                                                |  
       /     |                                                |  
      /      |                                                |  
     /       |                                                |  
    /        |                                                |  
   /         |                                                |  
  /          |                                                |  
 *           |                                                |  
 |           |                                                |  
 |           |                                                |  
 |           |                                                |  
 |           |              Na                                |  
 |           |                                                |  
 |           |              NaNa    Na                        |  
 |           |                                                |  
 |           |             Na     Na                          |  
 |           |                    Na                          |  
 |           |              Na                                |  
 |           |                                                |  
 |           |                                                |  
 |           .------------------------------------------------.  
 |          /                                                /   
 |         /                                                /    
 |        /                                                /     
 |       /                                                /      
 |      /                                                /       
 |     /                                                /        
 |    /                                                /         
 |   /                                                /          
 |  /                                                /           
 | /                                                /            
 |/                                                /             
 *------------------------------------------------*              

Positions:
   0 Na    11.465781   10.733579   10.374291    ( 0.0000,  0.0000,  0.0000)
   1 Na    11.376175    8.210604    9.952639    ( 0.0000,  0.0000,  0.0000)
   2 Na     8.791090    9.500904   10.339762    ( 0.0000,  0.0000,  0.0000)
   3 Na     8.908574    9.309951    7.922298    ( 0.0000,  0.0000,  0.0000)
   4 Na     8.811226    7.576985    9.578130    ( 0.0000,  0.0000,  0.0000)
   5 Na     8.726766    9.983177   12.253852    ( 0.0000,  0.0000,  0.0000)
   6 Na    11.156064    9.593244    7.977261    ( 0.0000,  0.0000,  0.0000)
   7 Na     9.105279   11.673757    9.546088    ( 0.0000,  0.0000,  0.0000)

Unit cell:
           periodic     x           y           z      points  spacing
  1. axis:    no    20.000000    0.000000    0.000000    80     0.2500
  2. axis:    no     0.000000   20.000000    0.000000    80     0.2500
  3. axis:    no     0.000000    0.000000   20.000000    80     0.2500

  Lengths:  20.000000  20.000000  20.000000
  Angles:   90.000000  90.000000  90.000000

Effective grid spacing dv^(1/3) = 0.2500

                     log10-error:    total        iterations:
           time      wfs    density  energy       fermi  poisson
iter:   1  10:50:22          +inf    -0.820020    2      1      
iter:   2  10:50:23         -1.72    -0.816065    2      1      
iter:   3  10:50:25         -1.91    -0.813306    2      1      
iter:   4  10:50:26         -2.37    -0.812858    1      1      
iter:   5  10:50:28         -2.82    -0.812810    1      1      
iter:   6  10:50:30         -3.07    -0.812793    1      1      
iter:   7  10:50:31         -3.56    -0.812792    1      1      
iter:   8  10:50:33         -3.97    -0.812792    1      1      
iter:   9  10:50:34         -4.17    -0.812792    1      1      

Converged after 9 iterations.

Dipole moment: (-0.024820, 0.043116, 0.177388) |e|*Ang

Energy contributions relative to reference atoms: (reference = -35189.668405)

Kinetic:       +107.048291
Potential:      -83.937565
External:        +0.000000
XC:             -24.169345
Entropy (-ST):   -0.000001
Local:           +0.245828
--------------------------
Free energy:     -0.812792
Extrapolated:    -0.812792

Fermi level: -2.56004

 Band  Eigenvalues  Occupancy
    0     -5.92940    2.00000
    1     -3.76807    2.00000
    2     -3.54232    2.00000
    3     -3.31779    2.00000
    4     -1.80285    0.00000
    5     -1.36357    0.00000
    6     -1.23834    0.00000
    7     -0.87202    0.00000
    8     -0.02893    0.00000
    9      0.89334    0.00000

Gap: 1.515 eV
Transition (v -> c):
  (s=0, k=0, n=3, [0.00, 0.00, 0.00]) -> (s=0, k=0, n=4, [0.00, 0.00, 0.00])

Forces in eV/Ang:
  0 Na    1.22090    1.17488    1.11202
  1 Na    1.30065   -1.76475    1.18207
  2 Na   -1.00284    0.29092   -0.06547
  3 Na   -1.82535    0.39989   -2.64218
  4 Na   -0.83425   -3.60444   -0.02684
  5 Na   -0.00187    0.55718    2.90429
  6 Na    1.64484    0.68090   -1.78448
  7 Na   -0.50197    2.26531   -0.68157

System changes: positions 

Initializing position-dependent things.

Density initialized from wave functions
             .------------------------------------------------.  
            /|                                                |  
           / |                                                |  
          /  |                                                |  
         /   |                                                |  
        /    |                                                |  
       /     |                                                |  
      /      |                                                |  
     /       |                                                |  
    /        |                                                |  
   /         |                                                |  
  /          |                                                |  
 *           |                                                |  
 |           |                                                |  
 |           |                                                |  
 |           |                                                |  
 |           |              Na                                |  
 |           |                                                |  
 |           |              NaNa    Na                        |  
 |           |                                                |  
 |           |                    Na                          |  
 |           |             Na     Na                          |  
 |           |              Na                                |  
 |           |                                                |  
 |           |                                                |  
 |           .------------------------------------------------.  
 |          /                                                /   
 |         /                                                /    
 |        /                                                /     
 |       /                                                /      
 |      /                                                /       
 |     /                                                /        
 |    /                                                /         
 |   /                                                /          
 |  /                                                /           
 | /                                                /            
 |/                                                /             
 *------------------------------------------------*              

Positions:
   0 Na    11.498290   10.766037   10.402974    ( 0.0000,  0.0000,  0.0000)
   1 Na    11.414155    8.161818    9.984918    ( 0.0000,  0.0000,  0.0000)
   2 Na     8.764783    9.511911   10.338192    ( 0.0000,  0.0000,  0.0000)
   3 Na     8.860052    9.320941    7.853782    ( 0.0000,  0.0000,  0.0000)
   4 Na     8.786351    7.481416    9.577637    ( 0.0000,  0.0000,  0.0000)
   5 Na     8.724303    9.997616   12.331031    ( 0.0000,  0.0000,  0.0000)
   6 Na    11.201465    9.611993    7.925964    ( 0.0000,  0.0000,  0.0000)
   7 Na     9.091542   11.730469    9.529769    ( 0.0000,  0.0000,  0.0000)

Unit cell:
           periodic     x           y           z      points  spacing
  1. axis:    no    20.000000    0.000000    0.000000    80     0.2500
  2. axis:    no     0.000000   20.000000    0.000000    80     0.2500
  3. axis:    no     0.000000    0.000000   20.000000    80     0.2500

  Lengths:  20.000000  20.000000  20.000000
  Angles:   90.000000  90.000000  90.000000

Effective grid spacing dv^(1/3) = 0.2500

                     log10-error:    total        iterations:
           time      wfs    density  energy       fermi  poisson
iter:   1  10:50:37          +inf    -2.184219    2      1      
iter:   2  10:50:38         -1.82    -2.181696    2      1      
iter:   3  10:50:40         -2.01    -2.179875    1      1      
iter:   4  10:50:41         -2.46    -2.179557    1      1      
iter:   5  10:50:43         -2.89    -2.179519    1      1      
iter:   6  10:50:44         -3.16    -2.179507    1      1      
iter:   7  10:50:46         -3.63    -2.179506    1      1      
iter:   8  10:50:47         -4.04    -2.179505    1      1      

Converged after 8 iterations.

Dipole moment: (-0.039363, 0.034725, 0.179379) |e|*Ang

Energy contributions relative to reference atoms: (reference = -35189.668405)

Kinetic:        +96.206340
Potential:      -76.106147
External:        +0.000000
XC:             -22.461558
Entropy (-ST):   -0.000001
Local:           +0.181860
--------------------------
Free energy:     -2.179506
Extrapolated:    -2.179505

Fermi level: -2.53922

 Band  Eigenvalues  Occupancy
    0     -5.79871    2.00000
    1     -3.71312    2.00000
    2     -3.50086    2.00000
    3     -3.27548    2.00000
    4     -1.80351    0.00000
    5     -1.36241    0.00000
    6     -1.25383    0.00000
    7     -0.93342    0.00000
    8      0.08148    0.00000
    9      0.94230    0.00000

Gap: 1.472 eV
Transition (v -> c):
  (s=0, k=0, n=3, [0.00, 0.00, 0.00]) -> (s=0, k=0, n=4, [0.00, 0.00, 0.00])

Forces in eV/Ang:
  0 Na    1.00138    0.93933    0.93102
  1 Na    1.01252   -1.40805    0.95274
  2 Na   -0.84158    0.14244   -0.14597
  3 Na   -1.52548    0.29629   -2.15479
  4 Na   -0.63863   -2.91488   -0.04311
  5 Na    0.06385    0.46362    2.43767
  6 Na    1.32848    0.54890   -1.36851
  7 Na   -0.40000    1.93013   -0.60991

System changes: positions 

Initializing position-dependent things.

Density initialized from wave functions
             .------------------------------------------------.  
            /|                                                |  
           / |                                                |  
          /  |                                                |  
         /   |                                                |  
        /    |                                                |  
       /     |                                                |  
      /      |                                                |  
     /       |                                                |  
    /        |                                                |  
   /         |                                                |  
  /          |                                                |  
 *           |                                                |  
 |           |                                                |  
 |           |                                                |  
 |           |              Na                                |  
 |           |                                                |  
 |           |                      Na                        |  
 |           |              NaNa                              |  
 |           |                                                |  
 |           |                    Na                          |  
 |           |             Na     Na                          |  
 |           |              Na                                |  
 |           |                                                |  
 |           |                                                |  
 |           .------------------------------------------------.  
 |          /                                                /   
 |         /                                                /    
 |        /                                                /     
 |       /                                                /      
 |      /                                                /       
 |     /                                                /        
 |    /                                                /         
 |   /                                                /          
 |  /                                                /           
 | /                                                /            
 |/                                                /             
 *------------------------------------------------*              

Positions:
   0 Na    11.529165   10.796457   10.430701    ( 0.0000,  0.0000,  0.0000)
   1 Na    11.448580    8.116214   10.015181    ( 0.0000,  0.0000,  0.0000)
   2 Na     8.739139    9.521371   10.338421    ( 0.0000,  0.0000,  0.0000)
   3 Na     8.814184    9.330953    7.788479    ( 0.0000,  0.0000,  0.0000)
   4 Na     8.764043    7.391580    9.577444    ( 0.0000,  0.0000,  0.0000)
   5 Na     8.723576   10.010244   12.401523    ( 0.0000,  0.0000,  0.0000)
   6 Na    11.243650    9.629390    7.879027    ( 0.0000,  0.0000,  0.0000)
   7 Na     9.078586   11.785975    9.513448    ( 0.0000,  0.0000,  0.0000)

Unit cell:
           periodic     x           y           z      points  spacing
  1. axis:    no    20.000000    0.000000    0.000000    80     0.2500
  2. axis:    no     0.000000   20.000000    0.000000    80     0.2500
  3. axis:    no     0.000000    0.000000   20.000000    80     0.2500

  Lengths:  20.000000  20.000000  20.000000
  Angles:   90.000000  90.000000  90.000000

Effective grid spacing dv^(1/3) = 0.2500

                     log10-error:    total        iterations:
           time      wfs    density  energy       fermi  poisson
iter:   1  10:50:50          +inf    -3.231421    2      1      
iter:   2  10:50:51         -1.91    -3.229738    1      1      
iter:   3  10:50:53         -2.10    -3.228522    1      1      
iter:   4  10:50:54         -2.53    -3.228271    1      1      
iter:   5  10:50:56         -2.99    -3.228244    1      1      
iter:   6  10:50:58         -3.23    -3.228235    1      1      
iter:   7  10:50:59         -3.82    -3.228234    1      1      
iter:   8  10:51:01         -4.17    -3.228234    1      1      

Converged after 8 iterations.

Dipole moment: (-0.051249, 0.029955, 0.180305) |e|*Ang

Energy contributions relative to reference atoms: (reference = -35189.668405)

Kinetic:        +86.800679
Potential:      -69.222265
External:        +0.000000
XC:             -20.950250
Entropy (-ST):   -0.000002
Local:           +0.143603
--------------------------
Free energy:     -3.228235
Extrapolated:    -3.228234

Fermi level: -2.52706

 Band  Eigenvalues  Occupancy
    0     -5.67747    2.00000
    1     -3.66347    2.00000
    2     -3.46348    2.00000
    3     -3.24175    2.00000
    4     -1.81296    0.00000
    5     -1.37289    0.00000
    6     -1.27101    0.00000
    7     -0.98348    0.00000
    8      0.21168    0.00000
    9      0.99054    0.00000

Gap: 1.429 eV
Transition (v -> c):
  (s=0, k=0, n=3, [0.00, 0.00, 0.00]) -> (s=0, k=0, n=4, [0.00, 0.00, 0.00])

Forces in eV/Ang:
  0 Na    0.82044    0.74940    0.78063
  1 Na    0.79307   -1.12421    0.77135
  2 Na   -0.71207    0.03395   -0.21993
  3 Na   -1.28113    0.21779   -1.75575
  4 Na   -0.49202   -2.36765   -0.06302
  5 Na    0.11074    0.39734    2.07791
  6 Na    1.07605    0.44754   -1.04435
  7 Na   -0.31649    1.64347   -0.54746

System changes: positions 

Initializing position-dependent things.

Density initialized from wave functions
             .------------------------------------------------.  
            /|                                                |  
           / |                                                |  
          /  |                                                |  
         /   |                                                |  
        /    |                                                |  
       /     |                                                |  
      /      |                                                |  
     /       |                                                |  
    /        |                                                |  
   /         |                                                |  
  /          |                                                |  
 *           |                                                |  
 |           |                                                |  
 |           |                                                |  
 |           |              Na                                |  
 |           |                                                |  
 |           |                      Na                        |  
 |           |              NaNa                              |  
 |           |                                                |  
 |           |                    Na                          |  
 |           |             Na     Na                          |  
 |           |              Na                                |  
 |           |                                                |  
 |           |                                                |  
 |           .------------------------------------------------.  
 |          /                                                /   
 |         /                                                /    
 |        /                                                /     
 |       /                                                /      
 |      /                                                /       
 |     /                                                /        
 |    /                                                /         
 |   /                                                /          
 |  /                                                /           
 | /                                                /            
 |/                                                /             
 *------------------------------------------------*              

Positions:
   0 Na    11.557972   10.824432   10.456978    ( 0.0000,  0.0000,  0.0000)
   1 Na    11.479437    8.074326   10.043117    ( 0.0000,  0.0000,  0.0000)
   2 Na     8.714731    9.528984   10.338847    ( 0.0000,  0.0000,  0.0000)
   3 Na     8.771304    9.339919    7.727346    ( 0.0000,  0.0000,  0.0000)
   4 Na     8.744250    7.308286    9.577207    ( 0.0000,  0.0000,  0.0000)
   5 Na     8.724205   10.021644   12.466456    ( 0.0000,  0.0000,  0.0000)
   6 Na    11.282357    9.645369    7.836833    ( 0.0000,  0.0000,  0.0000)
   7 Na     9.066640   11.839195    9.497398    ( 0.0000,  0.0000,  0.0000)

Unit cell:
           periodic     x           y           z      points  spacing
  1. axis:    no    20.000000    0.000000    0.000000    80     0.2500
  2. axis:    no     0.000000   20.000000    0.000000    80     0.2500
  3. axis:    no     0.000000    0.000000   20.000000    80     0.2500

  Lengths:  20.000000  20.000000  20.000000
  Angles:   90.000000  90.000000  90.000000

Effective grid spacing dv^(1/3) = 0.2500

                     log10-error:    total        iterations:
           time      wfs    density  energy       fermi  poisson
iter:   1  10:51:03          +inf    -4.031172    2      1      
iter:   2  10:51:05         -1.99    -4.030022    2      1      
iter:   3  10:51:06         -2.19    -4.029222    2      1      
iter:   4  10:51:08         -2.60    -4.029021    1      1      
iter:   5  10:51:09         -3.09    -4.029003    1      1      
iter:   6  10:51:11         -3.31    -4.028995    1      1      
iter:   7  10:51:12         -3.98    -4.028995    1      1      
iter:   8  10:51:14         -4.26    -4.028995    1      1      

Converged after 8 iterations.

Dipole moment: (-0.060653, 0.027642, 0.180315) |e|*Ang

Energy contributions relative to reference atoms: (reference = -35189.668405)

Kinetic:        +78.766747
Potential:      -63.283938
External:        +0.000000
XC:             -19.630524
Entropy (-ST):   -0.000003
Local:           +0.118720
--------------------------
Free energy:     -4.028997
Extrapolated:    -4.028995

Fermi level: -2.52045

 Band  Eigenvalues  Occupancy
    0     -5.56777    2.00000
    1     -3.61950    2.00000
    2     -3.42997    2.00000
    3     -3.21484    2.00000
    4     -1.82673    0.00000
    5     -1.38785    0.00000
    6     -1.28883    0.00000
    7     -1.02544    0.00000
    8      0.35099    0.00000
    9      1.03648    0.00000

Gap: 1.388 eV
Transition (v -> c):
  (s=0, k=0, n=3, [0.00, 0.00, 0.00]) -> (s=0, k=0, n=4, [0.00, 0.00, 0.00])

Forces in eV/Ang:
  0 Na    0.67401    0.59947    0.65756
  1 Na    0.62818   -0.90111    0.62911
  2 Na   -0.60872   -0.04095   -0.27260
  3 Na   -1.08254    0.15829   -1.43673
  4 Na   -0.38239   -1.93654   -0.07993
  5 Na    0.14329    0.34771    1.78703
  6 Na    0.87558    0.37027   -0.79427
  7 Na   -0.24877    1.40096   -0.49237

System changes: positions 

Initializing position-dependent things.

Density initialized from wave functions
             .------------------------------------------------.  
            /|                                                |  
           / |                                                |  
          /  |                                                |  
         /   |                                                |  
        /    |                                                |  
       /     |                                                |  
      /      |                                                |  
     /       |                                                |  
    /        |                                                |  
   /         |                                                |  
  /          |                                                |  
 *           |                                                |  
 |           |                                                |  
 |           |                                                |  
 |           |              Na                                |  
 |           |                                                |  
 |           |                      Na                        |  
 |           |              NaNa                              |  
 |           |                                                |  
 |           |                    Na                          |  
 |           |             Na      Na                         |  
 |           |              Na                                |  
 |           |                                                |  
 |           |                                                |  
 |           .------------------------------------------------.  
 |          /                                                /   
 |         /                                                /    
 |        /                                                /     
 |       /                                                /      
 |      /                                                /       
 |     /                                                /        
 |    /                                                /         
 |   /                                                /          
 |  /                                                /           
 | /                                                /            
 |/                                                /             
 *------------------------------------------------*              

Positions:
   0 Na    11.584703   10.850002   10.481721    ( 0.0000,  0.0000,  0.0000)
[...]
 |           .------------------------------------------------.  
 |          /                                                /   
 |         /                                                /    
 |        /                                                /     
 |       /                                                /      
 |      /                                                /       
 |     /                                                /        
 |    /                                                /         
 |   /                                                /          
 |  /                                                /           
 | /                                                /            
 |/                                                /             
 *------------------------------------------------*              

Positions:
   0 Na    12.253630   11.241030   10.537392    ( 0.0000,  0.0000,  0.0000)
   1 Na    11.178052    7.980767   11.090529    ( 0.0000,  0.0000,  0.0000)
   2 Na     7.481813    9.044296   10.497800    ( 0.0000,  0.0000,  0.0000)
   3 Na     8.045952    9.747920    7.198881    ( 0.0000,  0.0000,  0.0000)
   4 Na     9.358566    6.794591    8.648795    ( 0.0000,  0.0000,  0.0000)
   5 Na     9.484926   10.407159   12.609771    ( 0.0000,  0.0000,  0.0000)
   6 Na    11.382528    9.461074    7.942732    ( 0.0000,  0.0000,  0.0000)
   7 Na     9.156556   11.909964    9.412350    ( 0.0000,  0.0000,  0.0000)

Unit cell:
           periodic     x           y           z      points  spacing
  1. axis:    no    20.000000    0.000000    0.000000    80     0.2500
  2. axis:    no     0.000000   20.000000    0.000000    80     0.2500
  3. axis:    no     0.000000    0.000000   20.000000    80     0.2500

  Lengths:  20.000000  20.000000  20.000000
  Angles:   90.000000  90.000000  90.000000

Effective grid spacing dv^(1/3) = 0.2500

                     log10-error:    total        iterations:
           time      wfs    density  energy       fermi  poisson
iter:   1  11:07:13          +inf    -7.264041    1      1      
iter:   2  11:07:14         -2.44    -7.263949    1      1      
iter:   3  11:07:16         -2.82    -7.263938    1      1      
iter:   4  11:07:17         -3.08    -7.263933    1      1      
iter:   5  11:07:19         -3.52    -7.263933    1      1      
iter:   6  11:07:20         -3.82    -7.263933    1      1      
iter:   7  11:07:22         -4.16    -7.263933    1      1      

Converged after 7 iterations.

Dipole moment: (0.004288, 0.014410, -0.032011) |e|*Ang

Energy contributions relative to reference atoms: (reference = -35189.668405)

Kinetic:        +30.774472
Potential:      -26.928770
External:        +0.000000
XC:             -11.149028
Entropy (-ST):   -0.000003
Local:           +0.039395
--------------------------
Free energy:     -7.263935
Extrapolated:    -7.263933

Fermi level: -2.38603

 Band  Eigenvalues  Occupancy
    0     -4.80034    2.00000
    1     -3.51788    2.00000
    2     -3.12718    2.00000
    3     -3.09156    2.00000
    4     -1.67631    0.00000
    5     -1.64621    0.00000
    6     -1.53460    0.00000
    7     -1.46446    0.00000
    8      1.33694    0.00000
    9      1.57167    0.00000

Gap: 1.415 eV
Transition (v -> c):
  (s=0, k=0, n=3, [0.00, 0.00, 0.00]) -> (s=0, k=0, n=4, [0.00, 0.00, 0.00])

Forces in eV/Ang:
  0 Na    0.00905   -0.01136    0.00841
  1 Na   -0.01885   -0.02607   -0.01760
  2 Na    0.01317   -0.04100    0.00130
  3 Na    0.01108    0.00160    0.00973
  4 Na   -0.00218    0.00013    0.00348
  5 Na   -0.01065    0.06168    0.01129
  6 Na    0.00593    0.01081   -0.02697
  7 Na   -0.00647    0.00625    0.01257

System changes: positions 

Initializing position-dependent things.

Density initialized from wave functions
             .------------------------------------------------.  
            /|                                                |  
           / |                                                |  
          /  |                                                |  
         /   |                                                |  
        /    |                                                |  
       /     |                                                |  
      /      |                                                |  
     /       |                                                |  
    /        |                                                |  
   /         |                                                |  
  /          |                                                |  
 *           |                                                |  
 |           |                                                |  
 |           |                                                |  
 |           |                Na                              |  
 |           |                                                |  
 |           |                        Na                      |  
 |           |           Na    NaNa                           |  
 |           |                                                |  
 |           |                                                |  
 |           |                     Na                         |  
 |           |             NNa                                |  
 |           |                                                |  
 |           |                                                |  
 |           .------------------------------------------------.  
 |          /                                                /   
 |         /                                                /    
 |        /                                                /     
 |       /                                                /      
 |      /                                                /       
 |     /                                                /        
 |    /                                                /         
 |   /                                                /          
 |  /                                                /           
 | /                                                /            
 |/                                                /             
 *------------------------------------------------*              

Positions:
   0 Na    12.260353   11.245109   10.535219    ( 0.0000,  0.0000,  0.0000)
   1 Na    11.171221    7.978036   11.095540    ( 0.0000,  0.0000,  0.0000)
   2 Na     7.480582    9.041628   10.508292    ( 0.0000,  0.0000,  0.0000)
   3 Na     8.046529    9.754023    7.194669    ( 0.0000,  0.0000,  0.0000)
   4 Na     9.364783    6.789475    8.644248    ( 0.0000,  0.0000,  0.0000)
   5 Na     9.479878   10.414917   12.599724    ( 0.0000,  0.0000,  0.0000)
   6 Na    11.382056    9.458787    7.936550    ( 0.0000,  0.0000,  0.0000)
   7 Na     9.156468   11.904948    9.424353    ( 0.0000,  0.0000,  0.0000)

Unit cell:
           periodic     x           y           z      points  spacing
  1. axis:    no    20.000000    0.000000    0.000000    80     0.2500
  2. axis:    no     0.000000   20.000000    0.000000    80     0.2500
  3. axis:    no     0.000000    0.000000   20.000000    80     0.2500

  Lengths:  20.000000  20.000000  20.000000
  Angles:   90.000000  90.000000  90.000000

Effective grid spacing dv^(1/3) = 0.2500

                     log10-error:    total        iterations:
           time      wfs    density  energy       fermi  poisson
iter:   1  11:07:25          +inf    -7.264513    1      1      
iter:   2  11:07:26         -2.58    -7.264465    1      1      
iter:   3  11:07:28         -2.95    -7.264459    1      1      
iter:   4  11:07:30         -3.22    -7.264456    1      1      
iter:   5  11:07:31         -3.66    -7.264456    1      1      
iter:   6  11:07:33         -3.95    -7.264456    1      1      
iter:   7  11:07:34         -4.30    -7.264456    1      1      

Converged after 7 iterations.

Dipole moment: (0.003503, 0.013438, -0.031781) |e|*Ang

Energy contributions relative to reference atoms: (reference = -35189.668405)

Kinetic:        +30.667755
Potential:      -26.845488
External:        +0.000000
XC:             -11.125998
Entropy (-ST):   -0.000003
Local:           +0.039277
--------------------------
Free energy:     -7.264458
Extrapolated:    -7.264456

Fermi level: -2.38594

 Band  Eigenvalues  Occupancy
    0     -4.79816    2.00000
    1     -3.51491    2.00000
    2     -3.12790    2.00000
    3     -3.09224    2.00000
    4     -1.67555    0.00000
    5     -1.64469    0.00000
    6     -1.53719    0.00000
    7     -1.46642    0.00000
    8      1.34387    0.00000
    9      1.57983    0.00000

Gap: 1.417 eV
Transition (v -> c):
  (s=0, k=0, n=3, [0.00, 0.00, 0.00]) -> (s=0, k=0, n=4, [0.00, 0.00, 0.00])

Forces in eV/Ang:
  0 Na    0.00656   -0.01804    0.00618
  1 Na   -0.01729   -0.02160   -0.02110
  2 Na    0.01171   -0.04704   -0.01311
  3 Na    0.01123   -0.00113    0.01765
  4 Na   -0.00588    0.00631    0.00564
  5 Na   -0.00324    0.06263    0.02152
  6 Na    0.00577    0.01386   -0.01838
  7 Na   -0.00766    0.00718    0.00335

System changes: positions 

Initializing position-dependent things.

Density initialized from wave functions
             .------------------------------------------------.  
            /|                                                |  
           / |                                                |  
          /  |                                                |  
         /   |                                                |  
        /    |                                                |  
       /     |                                                |  
      /      |                                                |  
     /       |                                                |  
    /        |                                                |  
   /         |                                                |  
  /          |                                                |  
 *           |                                                |  
 |           |                                                |  
 |           |                                                |  
 |           |                Na                              |  
 |           |                                                |  
 |           |                        Na                      |  
 |           |           Na    NaNa                           |  
 |           |                                                |  
 |           |                                                |  
 |           |                     Na                         |  
 |           |             NNa                                |  
 |           |                                                |  
 |           |                                                |  
 |           .------------------------------------------------.  
 |          /                                                /   
 |         /                                                /    
 |        /                                                /     
 |       /                                                /      
 |      /                                                /       
 |     /                                                /        
 |    /                                                /         
 |   /                                                /          
 |  /                                                /           
 | /                                                /            
 |/                                                /             
 *------------------------------------------------*              

Positions:
   0 Na    12.262449   11.246355   10.534713    ( 0.0000,  0.0000,  0.0000)
   1 Na    11.168990    7.976900   11.096955    ( 0.0000,  0.0000,  0.0000)
   2 Na     7.480362    9.040625   10.511796    ( 0.0000,  0.0000,  0.0000)
   3 Na     8.046806    9.755926    7.193313    ( 0.0000,  0.0000,  0.0000)
   4 Na     9.366705    6.787779    8.642861    ( 0.0000,  0.0000,  0.0000)
   5 Na     9.478135   10.417752   12.596612    ( 0.0000,  0.0000,  0.0000)
   6 Na    11.381978    9.458155    7.934266    ( 0.0000,  0.0000,  0.0000)
   7 Na     9.156406   11.903484    9.428190    ( 0.0000,  0.0000,  0.0000)

Unit cell:
           periodic     x           y           z      points  spacing
  1. axis:    no    20.000000    0.000000    0.000000    80     0.2500
  2. axis:    no     0.000000   20.000000    0.000000    80     0.2500
  3. axis:    no     0.000000    0.000000   20.000000    80     0.2500

  Lengths:  20.000000  20.000000  20.000000
  Angles:   90.000000  90.000000  90.000000

Effective grid spacing dv^(1/3) = 0.2500

                     log10-error:    total        iterations:
           time      wfs    density  energy       fermi  poisson
iter:   1  11:07:37          +inf    -7.264547    1      1      
iter:   2  11:07:39         -3.07    -7.264542    1      1      
iter:   3  11:07:40         -3.43    -7.264542    1      1      
iter:   4  11:07:42         -3.70    -7.264541    1      1      
iter:   5  11:07:43         -4.14    -7.264541    1      1      

Converged after 5 iterations.

Dipole moment: (0.003273, 0.013100, -0.031657) |e|*Ang

Energy contributions relative to reference atoms: (reference = -35189.668405)

Kinetic:        +30.633492
Potential:      -26.819075
External:        +0.000000
XC:             -11.118182
Entropy (-ST):   -0.000003
Local:           +0.039225
--------------------------
Free energy:     -7.264543
Extrapolated:    -7.264541

Fermi level: -2.38591

 Band  Eigenvalues  Occupancy
    0     -4.79739    2.00000
    1     -3.51395    2.00000
    2     -3.12814    2.00000
    3     -3.09244    2.00000
    4     -1.67530    0.00000
    5     -1.64418    0.00000
    6     -1.53809    0.00000
    7     -1.46715    0.00000
    8      1.34607    0.00000
    9      1.58285    0.00000

Gap: 1.417 eV
Transition (v -> c):
  (s=0, k=0, n=3, [0.00, 0.00, 0.00]) -> (s=0, k=0, n=4, [0.00, 0.00, 0.00])

Forces in eV/Ang:
  0 Na    0.00572   -0.02028    0.00535
  1 Na   -0.01683   -0.01983   -0.02199
  2 Na    0.01112   -0.04889   -0.01770
  3 Na    0.01120   -0.00193    0.02019
  4 Na   -0.00703    0.00822    0.00610
  5 Na   -0.00066    0.06265    0.02482
  6 Na    0.00578    0.01483   -0.01547
  7 Na   -0.00805    0.00739    0.00023

Writing to Na8_cluster.gpw (mode='all')

Timing:                                       incl.     excl.
--------------------------------------------------------------------
Basic WFS set positions:                      0.069     0.037   0.0% |
 Redistribute:                                0.032     0.032   0.0% |
Basis functions set positions:                3.362     3.362   0.3% |
Forces:                                      59.717    11.041   0.9% |
 LCAO forces:                                48.675     0.042   0.0% |
  Atomic Hamiltonian force:                   0.191     0.191   0.0% |
  Initial:                                    0.008     0.001   0.0% |
   Get density matrix:                        0.008     0.008   0.0% |
  Paw correction:                             0.164     0.164   0.0% |
  Potential:                                 44.905    44.905   3.7% ||
  TCI derivative:                             3.363     3.363   0.3% |
  Wait for sum:                               0.002     0.002   0.0% |
LCAO WFS Initialize:                        144.802     0.141   0.0% |
 Density initialized from wave functions:    22.582    12.331   1.0% |
  Calculate density matrix:                   0.009     0.009   0.0% |
  Construct density:                         10.240    10.240   0.9% |
  Symmetrize density:                         0.002     0.002   0.0% |
 Hamiltonian:                               122.079     0.012   0.0% |
  Atomic:                                     9.215     0.101   0.0% |
   XC Correction:                             9.115     9.115   0.8% |
  Calculate atomic Hamiltonians:              0.776     0.776   0.1% |
  Communicate:                                0.001     0.001   0.0% |
  Hartree integrate/restrict:                 7.577     7.577   0.6% |
  Initialize Hamiltonian:                     0.004     0.004   0.0% |
  Poisson:                                   45.001     2.204   0.2% |
   Communicate bwd 0:                         5.291     5.291   0.4% |
   Communicate bwd 1:                         3.506     3.506   0.3% |
   Communicate fwd 0:                         4.549     4.549   0.4% |
   Communicate fwd 1:                         5.162     5.162   0.4% |
   fft:                                       7.582     7.582   0.6% |
   fft2:                                     16.707    16.707   1.4% ||
  XC 3D grid:                                58.502    58.502   4.9% |-|
  vbar:                                       0.990     0.990   0.1% |
P tci:                                        1.797     1.797   0.1% |
Redistribute:                                 0.017     0.017   0.0% |
SCF-cycle:                                  951.673     0.303   0.0% |
 Density:                                   138.421     0.015   0.0% |
  Atomic density matrices:                    0.575     0.575   0.0% |
  Mix:                                       72.324    72.324   6.0% |-|
  Multipole moments:                          0.147     0.147   0.0% |
  Normalize:                                  0.336     0.336   0.0% |
  Pseudo density:                            65.024     1.296   0.1% |
   Calculate density matrix:                  0.024     0.024   0.0% |
   Construct density:                        63.694    63.694   5.3% |-|
   Symmetrize density:                        0.010     0.010   0.0% |
 Hamiltonian:                               745.084     0.071   0.0% |
  Atomic:                                    56.073     0.611   0.1% |
   XC Correction:                            55.462    55.462   4.6% |-|
  Calculate atomic Hamiltonians:              4.788     4.788   0.4% |
  Communicate:                                0.007     0.007   0.0% |
  Hartree integrate/restrict:                48.105    48.105   4.0% |-|
  Poisson:                                  274.219    13.364   1.1% |
   Communicate bwd 0:                        32.239    32.239   2.7% ||
   Communicate bwd 1:                        21.350    21.350   1.8% ||
   Communicate fwd 0:                        28.220    28.220   2.4% ||
   Communicate fwd 1:                        31.444    31.444   2.6% ||
   fft:                                      46.130    46.130   3.8% |-|
   fft2:                                    101.473   101.473   8.5% |--|
  XC 3D grid:                               355.803   355.803  29.7% |-----------|
  vbar:                                       6.018     6.018   0.5% |
 LCAO eigensolver:                           67.865     0.048   0.0% |
  Calculate projections:                      0.037     0.037   0.0% |
  DenseAtomicCorrection:                      0.158     0.158   0.0% |
  Distribute overlap matrix:                  0.012     0.012   0.0% |
  Orbital Layouts:                            0.269     0.269   0.0% |
  Potential matrix:                          67.341    67.341   5.6% |-|
ST tci:                                       0.524     0.524   0.0% |
Set symmetry:                                 0.001     0.001   0.0% |
TCI: Evaluate splines:                        0.017     0.017   0.0% |
mktci:                                        0.136     0.136   0.0% |
Other:                                       36.819    36.819   3.1% ||
--------------------------------------------------------------------
Total:                                               1198.932 100.0%

Memory usage: 793.88 MiB
Date: Mon Feb  3 11:07:44 2020
