
  ___ ___ ___ _ _ _  
 |   |   |_  | | | | 
 | | | | | . | | | | 
 |__ |  _|___|_____|  19.8.1
 |___|_|             

User:   ericlin@hebbe04-1
Date:   Mon Mar  2 08:42:10 2020
Arch:   x86_64
Pid:    19531
Python: 3.7.2
gpaw:   /apps/Hebbe7/software/MPI/intel/2019.1.144-GCC-8.2.0-2.31.1/impi/2018.4.274/GPAW/19.8.1-Python-3.7.2/lib/python3.7/site-packages/gpaw
_gpaw:  /apps/Hebbe7/software/MPI/intel/2019.1.144-GCC-8.2.0-2.31.1/impi/2018.4.274/GPAW/19.8.1-Python-3.7.2/bin/
        gpaw-python
ase:    /apps/Hebbe7/software/MPI/intel/2019.1.144-GCC-8.2.0-2.31.1/impi/2018.4.274/ASE/3.18.0-Python-3.7.2/lib/python3.7/site-packages/ase (version 3.18.0)
numpy:  /apps/Hebbe7/software/MPI/intel/2019.1.144-GCC-8.2.0-2.31.1/impi/2018.4.274/SciPy-bundle/2019.03/lib/python3.7/site-packages/numpy (version 1.16.2)
scipy:  /apps/Hebbe7/software/MPI/intel/2019.1.144-GCC-8.2.0-2.31.1/impi/2018.4.274/SciPy-bundle/2019.03/lib/python3.7/site-packages/scipy (version 1.2.1)
libxc:  4.3.4
units:  Angstrom and eV
cores:  1

Input parameters:
  kpts: [13.2 13.2 13.2]
  mode: {ecut: 300.0,
         gammacentered: False,
         name: pw}

System changes: positions, numbers, cell, pbc, initial_charges, initial_magmoms 

Initialize ...

Al-setup:
  name: Aluminium
  id: 2e6447feaea722efcff26bf034b25f30
  Z: 13
  valence: 3
  core: 10
  charge: 0.0
  file: /apps/Common/Core/GPAW-setups/0.9.20000/Al.LDA.gz
  compensation charges: gauss, rc=0.34, lmax=2
  cutoffs: 1.91(filt), 2.36(core),
  valence states:
                energy  radius
    3s(2.00)    -7.830   1.085
    3p(1.00)    -2.783   1.085
    *s          19.382   1.085
    *p          24.428   1.085
    *d           0.000   1.085

  Using partial waves for Al as LCAO basis

Reference energy: -6578.421307

Spin-paired calculation

Occupation numbers:
  Fermi-Dirac: width=0.1000 eV

Convergence criteria:
  Maximum total energy change: 0.0005 eV / electron
  Maximum integral of absolute density change: 0.0001 electrons
  Maximum integral of absolute eigenstate change: 4e-08 eV^2
  Maximum number of iterations: 333

Symmetries present (total): 48

  ( 1  0  0)  ( 1  0  0)  ( 1  0  0)  ( 1  0  0)  ( 1  0 -1)  ( 1  0 -1)
  ( 1  0 -1)  ( 1 -1  0)  ( 0  1  0)  ( 0  0  1)  ( 1  0  0)  ( 1 -1  0)
  ( 1 -1  0)  ( 1  0 -1)  ( 0  0  1)  ( 0  1  0)  ( 1 -1  0)  ( 1  0  0)

  ( 1  0 -1)  ( 1  0 -1)  ( 1 -1  0)  ( 1 -1  0)  ( 1 -1  0)  ( 1 -1  0)
  ( 0  1 -1)  ( 0  0 -1)  ( 1  0  0)  ( 1  0 -1)  ( 0 -1  1)  ( 0 -1  0)
  ( 0  0 -1)  ( 0  1 -1)  ( 1  0 -1)  ( 1  0  0)  ( 0 -1  0)  ( 0 -1  1)

  ( 0  1  0)  ( 0  1  0)  ( 0  1  0)  ( 0  1  0)  ( 0  1 -1)  ( 0  1 -1)
  ( 1  0  0)  ( 0  1 -1)  ( 0  0  1)  (-1  1  0)  ( 1  0 -1)  ( 0  1  0)
  ( 0  0  1)  (-1  1  0)  ( 1  0  0)  ( 0  1 -1)  ( 0  0 -1)  (-1  1  0)

  ( 0  1 -1)  ( 0  1 -1)  ( 0  0  1)  ( 0  0  1)  ( 0  0  1)  ( 0  0  1)
  ( 0  0 -1)  (-1  1  0)  ( 1  0  0)  ( 0  1  0)  ( 0 -1  1)  (-1  0  1)
  ( 1  0 -1)  ( 0  1  0)  ( 0  1  0)  ( 1  0  0)  (-1  0  1)  ( 0 -1  1)

  ( 0  0 -1)  ( 0  0 -1)  ( 0  0 -1)  ( 0  0 -1)  ( 0 -1  1)  ( 0 -1  1)
  ( 1  0 -1)  ( 0  1 -1)  ( 0 -1  0)  (-1  0  0)  ( 1 -1  0)  ( 0  0  1)
  ( 0  1 -1)  ( 1  0 -1)  (-1  0  0)  ( 0 -1  0)  ( 0 -1  0)  (-1  0  1)

  ( 0 -1  1)  ( 0 -1  1)  ( 0 -1  0)  ( 0 -1  0)  ( 0 -1  0)  ( 0 -1  0)
  ( 0 -1  0)  (-1  0  1)  ( 1 -1  0)  ( 0  0 -1)  ( 0 -1  1)  (-1  0  0)
  ( 1 -1  0)  ( 0  0  1)  ( 0 -1  1)  (-1  0  0)  ( 1 -1  0)  ( 0  0 -1)

  (-1  1  0)  (-1  1  0)  (-1  1  0)  (-1  1  0)  (-1  0  1)  (-1  0  1)
  ( 0  1  0)  ( 0  1 -1)  (-1  0  1)  (-1  0  0)  ( 0  0  1)  ( 0 -1  1)
  ( 0  1 -1)  ( 0  1  0)  (-1  0  0)  (-1  0  1)  ( 0 -1  1)  ( 0  0  1)

  (-1  0  1)  (-1  0  1)  (-1  0  0)  (-1  0  0)  (-1  0  0)  (-1  0  0)
  (-1  1  0)  (-1  0  0)  ( 0  0 -1)  ( 0 -1  0)  (-1  1  0)  (-1  0  1)
  (-1  0  0)  (-1  1  0)  ( 0 -1  0)  ( 0  0 -1)  (-1  0  1)  (-1  1  0)

2197 k-points: 13 x 13 x 13 Monkhorst-Pack grid
84 k-points in the irreducible part of the Brillouin zone
       k-points in crystal coordinates                weights
   0:     0.00000000    0.00000000    0.00000000          1/2197
   1:     0.07692308    0.07692308    0.00000000          6/2197
   2:     0.07692308    0.07692308    0.07692308          8/2197
   3:     0.15384615    0.07692308    0.07692308         12/2197
   4:     0.15384615    0.15384615    0.00000000          6/2197
   5:     0.15384615    0.15384615    0.07692308         24/2197
   6:     0.15384615    0.15384615    0.15384615          8/2197
   7:     0.23076923    0.15384615    0.07692308         24/2197
   8:     0.23076923    0.15384615    0.15384615         24/2197
   9:     0.23076923    0.23076923    0.00000000          6/2197
          ...
  83:     0.46153846    0.46153846    0.46153846          8/2197

Wave functions: Plane wave expansion
  Cutoff energy: 300.000 eV
  Number of coefficients (min, max): 177, 203
  Pulay-stress correction: 0.000000 eV/Ang^3 (de/decut=0.000000)
  Using FFTW library
  ScaLapack parameters: grid=1x1, blocksize=None
  Wavefunction extrapolation:
    Improved wavefunction reuse through dual PAW basis 

Eigensolver
   Davidson(niter=2, smin=None, normalize=True) 

Densities:
  Coarse grid: 12*12*12 grid
  Fine grid: 24*24*24 grid
  Total Charge: 0.000000 

Density mixing:
  Method: separate
  Backend: pulay
  Linear mixing parameter: 0.05
  Mixing with 5 old densities
  Damping of long wave oscillations: 50 

Hamiltonian:
  XC and Coulomb potentials evaluated on a 24*24*24 grid
  Using the LDA Exchange-Correlation functional
 

Memory estimate:
  Process memory now: 102.14 MiB
  Calculator: 4.12 MiB
    Density: 0.68 MiB
      Arrays: 0.34 MiB
      Localized functions: 0.21 MiB
      Mixer: 0.13 MiB
    Hamiltonian: 0.23 MiB
      Arrays: 0.22 MiB
      XC: 0.00 MiB
      Poisson: 0.00 MiB
      vbar: 0.00 MiB
    Wavefunctions: 3.21 MiB
      Arrays psit_nG: 1.04 MiB
      Eigensolver: 0.03 MiB
      Projections: 0.07 MiB
      Projectors: 1.74 MiB
      PW-descriptor: 0.33 MiB

Total number of cores used: 1

Number of atoms: 1
Number of atomic orbitals: 4
Number of bands in calculation: 4
Bands to converge: occupied states only
Number of valence electrons: 3

... initialized

Initializing position-dependent things.

Density initialized from atomic densities
Creating initial wave functions:
  4 bands from LCAO basis set

                
                
                
       Al       
                
                
                
                

Positions:
   0 Al     0.000000    0.000000    0.000000    ( 0.0000,  0.0000,  0.0000)

Unit cell:
           periodic     x           y           z      points  spacing
  1. axis:    yes    0.000000    2.021500    2.021500    12     0.1945
  2. axis:    yes    2.021500    0.000000    2.021500    12     0.1945
  3. axis:    yes    2.021500    2.021500    0.000000    12     0.1945

  Lengths:   2.858833   2.858833   2.858833
  Angles:   60.000000  60.000000  60.000000

Effective grid spacing dv^(1/3) = 0.2122

                     log10-error:    total        iterations:
           time      wfs    density  energy       fermi  poisson
iter:   1  08:42:12  +1.20   +inf    -4.170566    2             
iter:   2  08:42:12  -2.65  -0.95    -4.171459    2             
iter:   3  08:42:12  -2.74  -0.96    -4.168629    3             
iter:   4  08:42:13  -3.97  -1.20    -4.166656    2             
iter:   5  08:42:13  -5.36  -2.17    -4.166995    2             
iter:   6  08:42:13  -5.06  -1.97    -4.166727    2             
iter:   7  08:42:14  -6.71  -2.72    -4.166721    2             
iter:   8  08:42:14  -8.45  -3.77    -4.166721    2             
iter:   9  08:42:14  -9.91  -4.18    -4.166721    1             

Converged after 9 iterations.

Dipole moment: (-0.000000, -0.000000, -0.000000) |e|*Ang

Energy contributions relative to reference atoms: (reference = -6578.421307)

Kinetic:         +4.011793
Potential:       -2.093149
External:        +0.000000
XC:              -6.072600
Entropy (-ST):   -0.014542
Local:           -0.005495
--------------------------
Free energy:     -4.173992
Extrapolated:    -4.166721

Fermi level: 6.88246

Showing only first 2 kpts
 Kpt  Band  Eigenvalues  Occupancy
  0     0     -4.15179    0.00091
  0     1     20.83443    0.00000
  0     2     20.83443    0.00000

  1     0     -3.93797    0.00546
  1     1     17.92276    0.00000
  1     2     17.92276    0.00000


No gap
Timing:                              incl.     excl.
-----------------------------------------------------------
Hamiltonian:                         0.018     0.000   0.0% |
 Atomic:                             0.014     0.000   0.0% |
  XC Correction:                     0.014     0.014   0.3% |
 Calculate atomic Hamiltonians:      0.000     0.000   0.0% |
 Communicate:                        0.000     0.000   0.0% |
 Initialize Hamiltonian:             0.000     0.000   0.0% |
 Poisson:                            0.000     0.000   0.0% |
 XC 3D grid:                         0.003     0.003   0.1% |
LCAO initialization:                 0.822     0.019   0.4% |
 LCAO eigensolver:                   0.201     0.003   0.1% |
  Calculate projections:             0.002     0.002   0.0% |
  DenseAtomicCorrection:             0.006     0.006   0.1% |
  Distribute overlap matrix:         0.002     0.002   0.0% |
  Orbital Layouts:                   0.006     0.006   0.1% |
  Potential matrix:                  0.027     0.027   0.5% |
  Sum over cells:                    0.155     0.155   3.1% ||
 LCAO to grid:                       0.308     0.308   6.2% |-|
 Set positions (LCAO WFS):           0.295     0.038   0.8% |
  Basic WFS set positions:           0.002     0.002   0.0% |
  Basis functions set positions:     0.000     0.000   0.0% |
  P tci:                             0.068     0.068   1.4% ||
  ST tci:                            0.165     0.165   3.3% ||
  mktci:                             0.021     0.021   0.4% |
PWDescriptor:                        0.006     0.006   0.1% |
SCF-cycle:                           3.375     0.091   1.8% ||
 Davidson:                           2.976     0.868  17.3% |------|
  Apply H:                           0.180     0.149   3.0% ||
   HMM T:                            0.031     0.031   0.6% |
  Subspace diag:                     0.488     0.055   1.1% |
   calc_h_matrix:                    0.302     0.121   2.4% ||
    Apply H:                         0.181     0.149   3.0% ||
     HMM T:                          0.032     0.032   0.6% |
   diagonalize:                      0.079     0.079   1.6% ||
   rotate_psi:                       0.053     0.053   1.1% |
  calc. matrices:                    1.171     0.813  16.2% |-----|
   Apply H:                          0.358     0.294   5.9% |-|
    HMM T:                           0.064     0.064   1.3% ||
  diagonalize:                       0.200     0.200   4.0% |-|
  rotate_psi:                        0.069     0.069   1.4% ||
 Density:                            0.129     0.000   0.0% |
  Atomic density matrices:           0.015     0.015   0.3% |
  Mix:                               0.008     0.008   0.2% |
  Multipole moments:                 0.001     0.001   0.0% |
  Pseudo density:                    0.104     0.058   1.2% |
   Symmetrize density:               0.047     0.047   0.9% |
 Hamiltonian:                        0.138     0.002   0.0% |
  Atomic:                            0.113     0.004   0.1% |
   XC Correction:                    0.110     0.110   2.2% ||
  Calculate atomic Hamiltonians:     0.003     0.003   0.1% |
  Communicate:                       0.000     0.000   0.0% |
  Poisson:                           0.001     0.001   0.0% |
  XC 3D grid:                        0.019     0.019   0.4% |
 Orthonormalize:                     0.041     0.006   0.1% |
  calc_s_matrix:                     0.010     0.010   0.2% |
  inverse-cholesky:                  0.011     0.011   0.2% |
  projections:                       0.010     0.010   0.2% |
  rotate_psi_s:                      0.002     0.002   0.0% |
Set symmetry:                        0.162     0.162   3.2% ||
Other:                               0.624     0.624  12.5% |----|
-----------------------------------------------------------
Total:                                         5.007 100.0%

Memory usage: 105.88 MiB
Date: Mon Mar  2 08:42:15 2020
