
  ___ ___ ___ _ _ _  
 |   |   |_  | | | | 
 | | | | | . | | | | 
 |__ |  _|___|_____|  19.8.1
 |___|_|             

User:   ericlin@hebbe12-3
Date:   Thu Mar  5 09:08:49 2020
Arch:   x86_64
Pid:    8300
Python: 3.7.2
gpaw:   /apps/Hebbe7/software/MPI/intel/2019.1.144-GCC-8.2.0-2.31.1/impi/2018.4.274/GPAW/19.8.1-Python-3.7.2/lib/python3.7/site-packages/gpaw
_gpaw:  /apps/Hebbe7/software/MPI/intel/2019.1.144-GCC-8.2.0-2.31.1/impi/2018.4.274/GPAW/19.8.1-Python-3.7.2/bin/
        gpaw-python
ase:    /apps/Hebbe7/software/MPI/intel/2019.1.144-GCC-8.2.0-2.31.1/impi/2018.4.274/ASE/3.18.0-Python-3.7.2/lib/python3.7/site-packages/ase (version 3.18.0)
numpy:  /apps/Hebbe7/software/MPI/intel/2019.1.144-GCC-8.2.0-2.31.1/impi/2018.4.274/SciPy-bundle/2019.03/lib/python3.7/site-packages/numpy (version 1.16.2)
scipy:  /apps/Hebbe7/software/MPI/intel/2019.1.144-GCC-8.2.0-2.31.1/impi/2018.4.274/SciPy-bundle/2019.03/lib/python3.7/site-packages/scipy (version 1.2.1)
libxc:  4.3.4
units:  Angstrom and eV
cores:  1

Input parameters:
  kpts: [16 16 16]
  mode: {ecut: 300.0,
         gammacentered: False,
         name: pw}

System changes: positions, numbers, cell, pbc, initial_charges, initial_magmoms 

Initialize ...

Al-setup:
  name: Aluminium
  id: 2e6447feaea722efcff26bf034b25f30
  Z: 13
  valence: 3
  core: 10
  charge: 0.0
  file: /apps/Common/Core/GPAW-setups/0.9.20000/Al.LDA.gz
  compensation charges: gauss, rc=0.34, lmax=2
  cutoffs: 1.91(filt), 2.36(core),
  valence states:
                energy  radius
    3s(2.00)    -7.830   1.085
    3p(1.00)    -2.783   1.085
    *s          19.382   1.085
    *p          24.428   1.085
    *d           0.000   1.085

  Using partial waves for Al as LCAO basis

Reference energy: -6578.421307

Spin-paired calculation

Occupation numbers:
  Fermi-Dirac: width=0.1000 eV

Convergence criteria:
  Maximum total energy change: 0.0005 eV / electron
  Maximum integral of absolute density change: 0.0001 electrons
  Maximum integral of absolute eigenstate change: 4e-08 eV^2
  Maximum number of iterations: 333

Symmetries present (total): 48

  ( 1  0  0)  ( 1  0  0)  ( 1  0  0)  ( 1  0  0)  ( 1  0 -1)  ( 1  0 -1)
  ( 1  0 -1)  ( 1 -1  0)  ( 0  1  0)  ( 0  0  1)  ( 1  0  0)  ( 1 -1  0)
  ( 1 -1  0)  ( 1  0 -1)  ( 0  0  1)  ( 0  1  0)  ( 1 -1  0)  ( 1  0  0)

  ( 1  0 -1)  ( 1  0 -1)  ( 1 -1  0)  ( 1 -1  0)  ( 1 -1  0)  ( 1 -1  0)
  ( 0  1 -1)  ( 0  0 -1)  ( 1  0  0)  ( 1  0 -1)  ( 0 -1  1)  ( 0 -1  0)
  ( 0  0 -1)  ( 0  1 -1)  ( 1  0 -1)  ( 1  0  0)  ( 0 -1  0)  ( 0 -1  1)

  ( 0  1  0)  ( 0  1  0)  ( 0  1  0)  ( 0  1  0)  ( 0  1 -1)  ( 0  1 -1)
  ( 1  0  0)  ( 0  1 -1)  ( 0  0  1)  (-1  1  0)  ( 1  0 -1)  ( 0  1  0)
  ( 0  0  1)  (-1  1  0)  ( 1  0  0)  ( 0  1 -1)  ( 0  0 -1)  (-1  1  0)

  ( 0  1 -1)  ( 0  1 -1)  ( 0  0  1)  ( 0  0  1)  ( 0  0  1)  ( 0  0  1)
  ( 0  0 -1)  (-1  1  0)  ( 1  0  0)  ( 0  1  0)  ( 0 -1  1)  (-1  0  1)
  ( 1  0 -1)  ( 0  1  0)  ( 0  1  0)  ( 1  0  0)  (-1  0  1)  ( 0 -1  1)

  ( 0  0 -1)  ( 0  0 -1)  ( 0  0 -1)  ( 0  0 -1)  ( 0 -1  1)  ( 0 -1  1)
  ( 1  0 -1)  ( 0  1 -1)  ( 0 -1  0)  (-1  0  0)  ( 1 -1  0)  ( 0  0  1)
  ( 0  1 -1)  ( 1  0 -1)  (-1  0  0)  ( 0 -1  0)  ( 0 -1  0)  (-1  0  1)

  ( 0 -1  1)  ( 0 -1  1)  ( 0 -1  0)  ( 0 -1  0)  ( 0 -1  0)  ( 0 -1  0)
  ( 0 -1  0)  (-1  0  1)  ( 1 -1  0)  ( 0  0 -1)  ( 0 -1  1)  (-1  0  0)
  ( 1 -1  0)  ( 0  0  1)  ( 0 -1  1)  (-1  0  0)  ( 1 -1  0)  ( 0  0 -1)

  (-1  1  0)  (-1  1  0)  (-1  1  0)  (-1  1  0)  (-1  0  1)  (-1  0  1)
  ( 0  1  0)  ( 0  1 -1)  (-1  0  1)  (-1  0  0)  ( 0  0  1)  ( 0 -1  1)
  ( 0  1 -1)  ( 0  1  0)  (-1  0  0)  (-1  0  1)  ( 0 -1  1)  ( 0  0  1)

  (-1  0  1)  (-1  0  1)  (-1  0  0)  (-1  0  0)  (-1  0  0)  (-1  0  0)
  (-1  1  0)  (-1  0  0)  ( 0  0 -1)  ( 0 -1  0)  (-1  1  0)  (-1  0  1)
  (-1  0  0)  (-1  1  0)  ( 0 -1  0)  ( 0  0 -1)  (-1  0  1)  (-1  1  0)
Note: your k-points are not as symmetric as your crystal!

4096 k-points: 16 x 16 x 16 Monkhorst-Pack grid
408 k-points in the irreducible part of the Brillouin zone
       k-points in crystal coordinates                weights
   0:     0.03125000    0.03125000   -0.03125000          6/4096
   1:     0.03125000    0.03125000    0.03125000          2/4096
   2:     0.09375000   -0.03125000   -0.03125000          6/4096
   3:     0.09375000    0.03125000   -0.09375000         12/4096
   4:     0.09375000    0.03125000   -0.03125000         12/4096
   5:     0.09375000    0.03125000    0.03125000          6/4096
   6:     0.09375000    0.09375000   -0.09375000          6/4096
   7:     0.09375000    0.09375000   -0.03125000          6/4096
   8:     0.09375000    0.09375000    0.03125000          6/4096
   9:     0.09375000    0.09375000    0.09375000          2/4096
          ...
 407:     0.46875000    0.46875000    0.46875000          2/4096

Wave functions: Plane wave expansion
  Cutoff energy: 300.000 eV
  Number of coefficients (min, max): 177, 203
  Pulay-stress correction: 0.000000 eV/Ang^3 (de/decut=0.000000)
  Using FFTW library
  ScaLapack parameters: grid=1x1, blocksize=None
  Wavefunction extrapolation:
    Improved wavefunction reuse through dual PAW basis 

Eigensolver
   Davidson(niter=2, smin=None, normalize=True) 

Densities:
  Coarse grid: 12*12*12 grid
  Fine grid: 24*24*24 grid
  Total Charge: 0.000000 

Density mixing:
  Method: separate
  Backend: pulay
  Linear mixing parameter: 0.05
  Mixing with 5 old densities
  Damping of long wave oscillations: 50 

Hamiltonian:
  XC and Coulomb potentials evaluated on a 24*24*24 grid
  Using the LDA Exchange-Correlation functional
 

Memory estimate:
  Process memory now: 111.78 MiB
  Calculator: 16.13 MiB
    Density: 0.68 MiB
      Arrays: 0.34 MiB
      Localized functions: 0.21 MiB
      Mixer: 0.13 MiB
    Hamiltonian: 0.23 MiB
      Arrays: 0.22 MiB
      XC: 0.00 MiB
      Poisson: 0.00 MiB
      vbar: 0.00 MiB
    Wavefunctions: 15.22 MiB
      Arrays psit_nG: 5.06 MiB
      Eigensolver: 0.03 MiB
      Projections: 0.32 MiB
      Projectors: 8.48 MiB
      PW-descriptor: 1.33 MiB

Total number of cores used: 1

Number of atoms: 1
Number of atomic orbitals: 4
Number of bands in calculation: 4
Bands to converge: occupied states only
Number of valence electrons: 3

... initialized

Initializing position-dependent things.

Density initialized from atomic densities
Creating initial wave functions:
  4 bands from LCAO basis set

                
                
                
       Al       
                
                
                
                

Positions:
   0 Al     0.000000    0.000000    0.000000    ( 0.0000,  0.0000,  0.0000)

Unit cell:
           periodic     x           y           z      points  spacing
  1. axis:    yes    0.000000    2.021500    2.021500    12     0.1945
  2. axis:    yes    2.021500    0.000000    2.021500    12     0.1945
  3. axis:    yes    2.021500    2.021500    0.000000    12     0.1945

  Lengths:   2.858833   2.858833   2.858833
  Angles:   60.000000  60.000000  60.000000

Effective grid spacing dv^(1/3) = 0.2122

                     log10-error:    total        iterations:
           time      wfs    density  energy       fermi  poisson
iter:   1  09:08:58  +1.20   +inf    -4.174347    2             
iter:   2  09:09:00  -2.65  -0.95    -4.175236    2             
iter:   3  09:09:02  -2.73  -0.96    -4.172374    3             
iter:   4  09:09:04  -3.96  -1.20    -4.170377    2             
iter:   5  09:09:06  -5.40  -2.16    -4.170690    2             
iter:   6  09:09:09  -5.06  -2.00    -4.170448    2             
iter:   7  09:09:11  -6.67  -2.69    -4.170442    2             
iter:   8  09:09:13  -8.25  -3.75    -4.170442    2             
iter:   9  09:09:15  -9.73  -4.08    -4.170442    1             

Converged after 9 iterations.

Dipole moment: (0.000000, 0.000000, 0.000000) |e|*Ang

Energy contributions relative to reference atoms: (reference = -6578.421307)

Kinetic:         +4.061967
Potential:       -2.145226
External:        +0.000000
XC:              -6.074849
Entropy (-ST):   -0.013618
Local:           -0.005525
--------------------------
Free energy:     -4.177251
Extrapolated:    -4.170442

Fermi level: 6.93849

Showing only first 2 kpts
 Kpt  Band  Eigenvalues  Occupancy
  0     0     -4.05470    0.00293
  0     1     18.11370    0.00000
  0     2     18.69431    0.00000

  1     0     -4.12531    0.00098
  1     1     18.88239    0.00000
  1     2     19.51117    0.00000


No gap
Timing:                              incl.     excl.
-----------------------------------------------------------
Hamiltonian:                         0.020     0.000   0.0% |
 Atomic:                             0.016     0.001   0.0% |
  XC Correction:                     0.016     0.016   0.1% |
 Calculate atomic Hamiltonians:      0.001     0.001   0.0% |
 Communicate:                        0.000     0.000   0.0% |
 Initialize Hamiltonian:             0.000     0.000   0.0% |
 Poisson:                            0.000     0.000   0.0% |
 XC 3D grid:                         0.003     0.003   0.0% |
LCAO initialization:                 5.027     0.028   0.1% |
 LCAO eigensolver:                   1.137     0.028   0.1% |
  Calculate projections:             0.014     0.014   0.1% |
  DenseAtomicCorrection:             0.058     0.058   0.2% |
  Distribute overlap matrix:         0.014     0.014   0.1% |
  Orbital Layouts:                   0.059     0.059   0.2% |
  Potential matrix:                  0.029     0.029   0.1% |
  Sum over cells:                    0.935     0.935   3.6% ||
 LCAO to grid:                       2.492     2.492   9.5% |---|
 Set positions (LCAO WFS):           1.369     0.184   0.7% |
  Basic WFS set positions:           0.002     0.002   0.0% |
  Basis functions set positions:     0.000     0.000   0.0% |
  P tci:                             0.350     0.350   1.3% ||
  ST tci:                            0.809     0.809   3.1% ||
  mktci:                             0.024     0.024   0.1% |
PWDescriptor:                        0.036     0.036   0.1% |
SCF-cycle:                          19.736     0.529   2.0% ||
 Davidson:                          18.329     5.259  20.1% |-------|
  Apply H:                           1.053     0.871   3.3% ||
   HMM T:                            0.182     0.182   0.7% |
  Subspace diag:                     3.058     0.360   1.4% ||
   calc_h_matrix:                    1.794     0.717   2.7% ||
    Apply H:                         1.077     0.880   3.4% ||
     HMM T:                          0.196     0.196   0.8% |
   diagonalize:                      0.588     0.588   2.2% ||
   rotate_psi:                       0.316     0.316   1.2% |
  calc. matrices:                    6.809     4.748  18.1% |------|
   Apply H:                          2.061     1.693   6.5% |--|
    HMM T:                           0.369     0.369   1.4% ||
  diagonalize:                       1.734     1.734   6.6% |--|
  rotate_psi:                        0.417     0.417   1.6% ||
 Density:                            0.462     0.000   0.0% |
  Atomic density matrices:           0.073     0.073   0.3% |
  Mix:                               0.012     0.012   0.0% |
  Multipole moments:                 0.001     0.001   0.0% |
  Pseudo density:                    0.375     0.320   1.2% |
   Symmetrize density:               0.055     0.055   0.2% |
 Hamiltonian:                        0.162     0.003   0.0% |
  Atomic:                            0.129     0.006   0.0% |
   XC Correction:                    0.123     0.123   0.5% |
  Calculate atomic Hamiltonians:     0.004     0.004   0.0% |
  Communicate:                       0.000     0.000   0.0% |
  Poisson:                           0.001     0.001   0.0% |
  XC 3D grid:                        0.024     0.024   0.1% |
 Orthonormalize:                     0.254     0.039   0.1% |
  calc_s_matrix:                     0.058     0.058   0.2% |
  inverse-cholesky:                  0.081     0.081   0.3% |
  projections:                       0.063     0.063   0.2% |
  rotate_psi_s:                      0.013     0.013   0.0% |
Set symmetry:                        0.337     0.337   1.3% ||
Other:                               1.019     1.019   3.9% |-|
-----------------------------------------------------------
Total:                                        26.175 100.0%

Memory usage: 126.53 MiB
Date: Thu Mar  5 09:09:15 2020
