
  ___ ___ ___ _ _ _  
 |   |   |_  | | | | 
 | | | | | . | | | | 
 |__ |  _|___|_____|  19.8.1
 |___|_|             

User:   ericlin@hebbe03-7
Date:   Thu Mar  5 03:20:08 2020
Arch:   x86_64
Pid:    4714
Python: 3.7.2
gpaw:   /apps/Hebbe7/software/MPI/intel/2019.1.144-GCC-8.2.0-2.31.1/impi/2018.4.274/GPAW/19.8.1-Python-3.7.2/lib/python3.7/site-packages/gpaw
_gpaw:  /apps/Hebbe7/software/MPI/intel/2019.1.144-GCC-8.2.0-2.31.1/impi/2018.4.274/GPAW/19.8.1-Python-3.7.2/bin/
        gpaw-python
ase:    /apps/Hebbe7/software/MPI/intel/2019.1.144-GCC-8.2.0-2.31.1/impi/2018.4.274/ASE/3.18.0-Python-3.7.2/lib/python3.7/site-packages/ase (version 3.18.0)
numpy:  /apps/Hebbe7/software/MPI/intel/2019.1.144-GCC-8.2.0-2.31.1/impi/2018.4.274/SciPy-bundle/2019.03/lib/python3.7/site-packages/numpy (version 1.16.2)
scipy:  /apps/Hebbe7/software/MPI/intel/2019.1.144-GCC-8.2.0-2.31.1/impi/2018.4.274/SciPy-bundle/2019.03/lib/python3.7/site-packages/scipy (version 1.2.1)
libxc:  4.3.4
units:  Angstrom and eV
cores:  1

Input parameters:
  kpts: [16 16 16]
  mode: {ecut: 300.0,
         gammacentered: False,
         name: pw}

System changes: positions, numbers, cell, pbc, initial_charges, initial_magmoms 

Initialize ...

Al-setup:
  name: Aluminium
  id: 2e6447feaea722efcff26bf034b25f30
  Z: 13
  valence: 3
  core: 10
  charge: 0.0
  file: /apps/Common/Core/GPAW-setups/0.9.20000/Al.LDA.gz
  compensation charges: gauss, rc=0.34, lmax=2
  cutoffs: 1.91(filt), 2.36(core),
  valence states:
                energy  radius
    3s(2.00)    -7.830   1.085
    3p(1.00)    -2.783   1.085
    *s          19.382   1.085
    *p          24.428   1.085
    *d           0.000   1.085

  Using partial waves for Al as LCAO basis

Reference energy: -6578.421307

Spin-paired calculation

Occupation numbers:
  Fermi-Dirac: width=0.1000 eV

Convergence criteria:
  Maximum total energy change: 0.0005 eV / electron
  Maximum integral of absolute density change: 0.0001 electrons
  Maximum integral of absolute eigenstate change: 4e-08 eV^2
  Maximum number of iterations: 333

Symmetries present (total): 48

  ( 1  0  0)  ( 1  0  0)  ( 1  0  0)  ( 1  0  0)  ( 1  0 -1)  ( 1  0 -1)
  ( 1  0 -1)  ( 1 -1  0)  ( 0  1  0)  ( 0  0  1)  ( 1  0  0)  ( 1 -1  0)
  ( 1 -1  0)  ( 1  0 -1)  ( 0  0  1)  ( 0  1  0)  ( 1 -1  0)  ( 1  0  0)

  ( 1  0 -1)  ( 1  0 -1)  ( 1 -1  0)  ( 1 -1  0)  ( 1 -1  0)  ( 1 -1  0)
  ( 0  1 -1)  ( 0  0 -1)  ( 1  0  0)  ( 1  0 -1)  ( 0 -1  1)  ( 0 -1  0)
  ( 0  0 -1)  ( 0  1 -1)  ( 1  0 -1)  ( 1  0  0)  ( 0 -1  0)  ( 0 -1  1)

  ( 0  1  0)  ( 0  1  0)  ( 0  1  0)  ( 0  1  0)  ( 0  1 -1)  ( 0  1 -1)
  ( 1  0  0)  ( 0  1 -1)  ( 0  0  1)  (-1  1  0)  ( 1  0 -1)  ( 0  1  0)
  ( 0  0  1)  (-1  1  0)  ( 1  0  0)  ( 0  1 -1)  ( 0  0 -1)  (-1  1  0)

  ( 0  1 -1)  ( 0  1 -1)  ( 0  0  1)  ( 0  0  1)  ( 0  0  1)  ( 0  0  1)
  ( 0  0 -1)  (-1  1  0)  ( 1  0  0)  ( 0  1  0)  ( 0 -1  1)  (-1  0  1)
  ( 1  0 -1)  ( 0  1  0)  ( 0  1  0)  ( 1  0  0)  (-1  0  1)  ( 0 -1  1)

  ( 0  0 -1)  ( 0  0 -1)  ( 0  0 -1)  ( 0  0 -1)  ( 0 -1  1)  ( 0 -1  1)
  ( 1  0 -1)  ( 0  1 -1)  ( 0 -1  0)  (-1  0  0)  ( 1 -1  0)  ( 0  0  1)
  ( 0  1 -1)  ( 1  0 -1)  (-1  0  0)  ( 0 -1  0)  ( 0 -1  0)  (-1  0  1)

  ( 0 -1  1)  ( 0 -1  1)  ( 0 -1  0)  ( 0 -1  0)  ( 0 -1  0)  ( 0 -1  0)
  ( 0 -1  0)  (-1  0  1)  ( 1 -1  0)  ( 0  0 -1)  ( 0 -1  1)  (-1  0  0)
  ( 1 -1  0)  ( 0  0  1)  ( 0 -1  1)  (-1  0  0)  ( 1 -1  0)  ( 0  0 -1)

  (-1  1  0)  (-1  1  0)  (-1  1  0)  (-1  1  0)  (-1  0  1)  (-1  0  1)
  ( 0  1  0)  ( 0  1 -1)  (-1  0  1)  (-1  0  0)  ( 0  0  1)  ( 0 -1  1)
  ( 0  1 -1)  ( 0  1  0)  (-1  0  0)  (-1  0  1)  ( 0 -1  1)  ( 0  0  1)

  (-1  0  1)  (-1  0  1)  (-1  0  0)  (-1  0  0)  (-1  0  0)  (-1  0  0)
  (-1  1  0)  (-1  0  0)  ( 0  0 -1)  ( 0 -1  0)  (-1  1  0)  (-1  0  1)
  (-1  0  0)  (-1  1  0)  ( 0 -1  0)  ( 0  0 -1)  (-1  0  1)  (-1  1  0)
Note: your k-points are not as symmetric as your crystal!

4096 k-points: 16 x 16 x 16 Monkhorst-Pack grid
408 k-points in the irreducible part of the Brillouin zone
       k-points in crystal coordinates                weights
   0:     0.03125000    0.03125000   -0.03125000          6/4096
   1:     0.03125000    0.03125000    0.03125000          2/4096
   2:     0.09375000   -0.03125000   -0.03125000          6/4096
   3:     0.09375000    0.03125000   -0.09375000         12/4096
   4:     0.09375000    0.03125000   -0.03125000         12/4096
   5:     0.09375000    0.03125000    0.03125000          6/4096
   6:     0.09375000    0.09375000   -0.09375000          6/4096
   7:     0.09375000    0.09375000   -0.03125000          6/4096
   8:     0.09375000    0.09375000    0.03125000          6/4096
   9:     0.09375000    0.09375000    0.09375000          2/4096
          ...
 407:     0.46875000    0.46875000    0.46875000          2/4096

Wave functions: Plane wave expansion
  Cutoff energy: 300.000 eV
  Number of coefficients (min, max): 177, 203
  Pulay-stress correction: 0.000000 eV/Ang^3 (de/decut=0.000000)
  Using FFTW library
  ScaLapack parameters: grid=1x1, blocksize=None
  Wavefunction extrapolation:
    Improved wavefunction reuse through dual PAW basis 

Eigensolver
   Davidson(niter=2, smin=None, normalize=True) 

Densities:
  Coarse grid: 12*12*12 grid
  Fine grid: 24*24*24 grid
  Total Charge: 0.000000 

Density mixing:
  Method: separate
  Backend: pulay
  Linear mixing parameter: 0.05
  Mixing with 5 old densities
  Damping of long wave oscillations: 50 

Hamiltonian:
  XC and Coulomb potentials evaluated on a 24*24*24 grid
  Using the LDA Exchange-Correlation functional
 

Memory estimate:
  Process memory now: 115.82 MiB
  Calculator: 16.13 MiB
    Density: 0.68 MiB
      Arrays: 0.34 MiB
      Localized functions: 0.21 MiB
      Mixer: 0.13 MiB
    Hamiltonian: 0.23 MiB
      Arrays: 0.22 MiB
      XC: 0.00 MiB
      Poisson: 0.00 MiB
      vbar: 0.00 MiB
    Wavefunctions: 15.22 MiB
      Arrays psit_nG: 5.06 MiB
      Eigensolver: 0.03 MiB
      Projections: 0.32 MiB
      Projectors: 8.48 MiB
      PW-descriptor: 1.33 MiB

Total number of cores used: 1

Number of atoms: 1
Number of atomic orbitals: 4
Number of bands in calculation: 4
Bands to converge: occupied states only
Number of valence electrons: 3

... initialized

Initializing position-dependent things.

Density initialized from atomic densities
Creating initial wave functions:
  4 bands from LCAO basis set

                
                
                
       Al       
                
                
                
                

Positions:
   0 Al     0.000000    0.000000    0.000000    ( 0.0000,  0.0000,  0.0000)

Unit cell:
           periodic     x           y           z      points  spacing
  1. axis:    yes    0.000000    2.021500    2.021500    12     0.1945
  2. axis:    yes    2.021500    0.000000    2.021500    12     0.1945
  3. axis:    yes    2.021500    2.021500    0.000000    12     0.1945

  Lengths:   2.858833   2.858833   2.858833
  Angles:   60.000000  60.000000  60.000000

Effective grid spacing dv^(1/3) = 0.2122

                     log10-error:    total        iterations:
           time      wfs    density  energy       fermi  poisson
iter:   1  03:20:17  +1.20   +inf    -4.174347    2             
iter:   2  03:20:19  -2.65  -0.95    -4.175236    2             
iter:   3  03:20:22  -2.73  -0.96    -4.172374    3             
iter:   4  03:20:24  -3.96  -1.20    -4.170377    2             
iter:   5  03:20:26  -5.40  -2.16    -4.170690    2             
iter:   6  03:20:28  -5.06  -2.00    -4.170448    2             
iter:   7  03:20:31  -6.67  -2.69    -4.170442    2             
iter:   8  03:20:33  -8.25  -3.75    -4.170442    2             
iter:   9  03:20:35  -9.73  -4.08    -4.170442    1             

Converged after 9 iterations.

Dipole moment: (0.000000, 0.000000, 0.000000) |e|*Ang

Energy contributions relative to reference atoms: (reference = -6578.421307)

Kinetic:         +4.061967
Potential:       -2.145226
External:        +0.000000
XC:              -6.074849
Entropy (-ST):   -0.013618
Local:           -0.005525
--------------------------
Free energy:     -4.177251
Extrapolated:    -4.170442

Fermi level: 6.93849

Showing only first 2 kpts
 Kpt  Band  Eigenvalues  Occupancy
  0     0     -4.05470    0.00293
  0     1     18.11370    0.00000
  0     2     18.69431    0.00000

  1     0     -4.12531    0.00098
  1     1     18.88239    0.00000
  1     2     19.51117    0.00000


No gap
Timing:                              incl.     excl.
-----------------------------------------------------------
Hamiltonian:                         0.020     0.000   0.0% |
 Atomic:                             0.016     0.001   0.0% |
  XC Correction:                     0.015     0.015   0.1% |
 Calculate atomic Hamiltonians:      0.001     0.001   0.0% |
 Communicate:                        0.000     0.000   0.0% |
 Initialize Hamiltonian:             0.000     0.000   0.0% |
 Poisson:                            0.000     0.000   0.0% |
 XC 3D grid:                         0.003     0.003   0.0% |
LCAO initialization:                 5.450     0.029   0.1% |
 LCAO eigensolver:                   1.119     0.031   0.1% |
  Calculate projections:             0.015     0.015   0.1% |
  DenseAtomicCorrection:             0.064     0.064   0.2% |
  Distribute overlap matrix:         0.016     0.016   0.1% |
  Orbital Layouts:                   0.066     0.066   0.2% |
  Potential matrix:                  0.031     0.031   0.1% |
  Sum over cells:                    0.895     0.895   3.3% ||
 LCAO to grid:                       2.809     2.809  10.3% |---|
 Set positions (LCAO WFS):           1.493     0.200   0.7% |
  Basic WFS set positions:           0.003     0.003   0.0% |
  Basis functions set positions:     0.000     0.000   0.0% |
  P tci:                             0.361     0.361   1.3% ||
  ST tci:                            0.907     0.907   3.3% ||
  mktci:                             0.023     0.023   0.1% |
PWDescriptor:                        0.035     0.035   0.1% |
SCF-cycle:                          20.325     0.555   2.0% ||
 Davidson:                          18.879     5.450  20.1% |-------|
  Apply H:                           1.045     0.867   3.2% ||
   HMM T:                            0.177     0.177   0.7% |
  Subspace diag:                     3.205     0.368   1.4% ||
   calc_h_matrix:                    1.821     0.747   2.7% ||
    Apply H:                         1.075     0.883   3.3% ||
     HMM T:                          0.192     0.192   0.7% |
   diagonalize:                      0.694     0.694   2.6% ||
   rotate_psi:                       0.322     0.322   1.2% |
  calc. matrices:                    6.877     4.814  17.7% |------|
   Apply H:                          2.063     1.704   6.3% |--|
    HMM T:                           0.360     0.360   1.3% ||
  diagonalize:                       1.908     1.908   7.0% |--|
  rotate_psi:                        0.394     0.394   1.5% ||
 Density:                            0.444     0.000   0.0% |
  Atomic density matrices:           0.066     0.066   0.2% |
  Mix:                               0.013     0.013   0.0% |
  Multipole moments:                 0.001     0.001   0.0% |
  Pseudo density:                    0.363     0.306   1.1% |
   Symmetrize density:               0.057     0.057   0.2% |
 Hamiltonian:                        0.166     0.003   0.0% |
  Atomic:                            0.132     0.007   0.0% |
   XC Correction:                    0.125     0.125   0.5% |
  Calculate atomic Hamiltonians:     0.005     0.005   0.0% |
  Communicate:                       0.000     0.000   0.0% |
  Poisson:                           0.001     0.001   0.0% |
  XC 3D grid:                        0.025     0.025   0.1% |
 Orthonormalize:                     0.281     0.040   0.1% |
  calc_s_matrix:                     0.062     0.062   0.2% |
  inverse-cholesky:                  0.092     0.092   0.3% |
  projections:                       0.074     0.074   0.3% |
  rotate_psi_s:                      0.013     0.013   0.0% |
Set symmetry:                        0.337     0.337   1.2% |
Other:                               0.982     0.982   3.6% ||
-----------------------------------------------------------
Total:                                        27.149 100.0%

Memory usage: 126.57 MiB
Date: Thu Mar  5 03:20:35 2020
