
  ___ ___ ___ _ _ _  
 |   |   |_  | | | | 
 | | | | | . | | | | 
 |__ |  _|___|_____|  19.8.1
 |___|_|             

User:   ericlin@hebbe04-1
Date:   Mon Mar  2 08:42:14 2020
Arch:   x86_64
Pid:    19531
Python: 3.7.2
gpaw:   /apps/Hebbe7/software/MPI/intel/2019.1.144-GCC-8.2.0-2.31.1/impi/2018.4.274/GPAW/19.8.1-Python-3.7.2/lib/python3.7/site-packages/gpaw
_gpaw:  /apps/Hebbe7/software/MPI/intel/2019.1.144-GCC-8.2.0-2.31.1/impi/2018.4.274/GPAW/19.8.1-Python-3.7.2/bin/
        gpaw-python
ase:    /apps/Hebbe7/software/MPI/intel/2019.1.144-GCC-8.2.0-2.31.1/impi/2018.4.274/ASE/3.18.0-Python-3.7.2/lib/python3.7/site-packages/ase (version 3.18.0)
numpy:  /apps/Hebbe7/software/MPI/intel/2019.1.144-GCC-8.2.0-2.31.1/impi/2018.4.274/SciPy-bundle/2019.03/lib/python3.7/site-packages/numpy (version 1.16.2)
scipy:  /apps/Hebbe7/software/MPI/intel/2019.1.144-GCC-8.2.0-2.31.1/impi/2018.4.274/SciPy-bundle/2019.03/lib/python3.7/site-packages/scipy (version 1.2.1)
libxc:  4.3.4
units:  Angstrom and eV
cores:  1

Input parameters:
  kpts: [17.6 17.6 17.6]
  mode: {ecut: 300.0,
         gammacentered: False,
         name: pw}

System changes: positions, numbers, cell, pbc, initial_charges, initial_magmoms 

Initialize ...

Al-setup:
  name: Aluminium
  id: 2e6447feaea722efcff26bf034b25f30
  Z: 13
  valence: 3
  core: 10
  charge: 0.0
  file: /apps/Common/Core/GPAW-setups/0.9.20000/Al.LDA.gz
  compensation charges: gauss, rc=0.34, lmax=2
  cutoffs: 1.91(filt), 2.36(core),
  valence states:
                energy  radius
    3s(2.00)    -7.830   1.085
    3p(1.00)    -2.783   1.085
    *s          19.382   1.085
    *p          24.428   1.085
    *d           0.000   1.085

  Using partial waves for Al as LCAO basis

Reference energy: -6578.421307

Spin-paired calculation

Occupation numbers:
  Fermi-Dirac: width=0.1000 eV

Convergence criteria:
  Maximum total energy change: 0.0005 eV / electron
  Maximum integral of absolute density change: 0.0001 electrons
  Maximum integral of absolute eigenstate change: 4e-08 eV^2
  Maximum number of iterations: 333

Symmetries present (total): 48

  ( 1  0  0)  ( 1  0  0)  ( 1  0  0)  ( 1  0  0)  ( 1  0 -1)  ( 1  0 -1)
  ( 1  0 -1)  ( 1 -1  0)  ( 0  1  0)  ( 0  0  1)  ( 1  0  0)  ( 1 -1  0)
  ( 1 -1  0)  ( 1  0 -1)  ( 0  0  1)  ( 0  1  0)  ( 1 -1  0)  ( 1  0  0)

  ( 1  0 -1)  ( 1  0 -1)  ( 1 -1  0)  ( 1 -1  0)  ( 1 -1  0)  ( 1 -1  0)
  ( 0  1 -1)  ( 0  0 -1)  ( 1  0  0)  ( 1  0 -1)  ( 0 -1  1)  ( 0 -1  0)
  ( 0  0 -1)  ( 0  1 -1)  ( 1  0 -1)  ( 1  0  0)  ( 0 -1  0)  ( 0 -1  1)

  ( 0  1  0)  ( 0  1  0)  ( 0  1  0)  ( 0  1  0)  ( 0  1 -1)  ( 0  1 -1)
  ( 1  0  0)  ( 0  1 -1)  ( 0  0  1)  (-1  1  0)  ( 1  0 -1)  ( 0  1  0)
  ( 0  0  1)  (-1  1  0)  ( 1  0  0)  ( 0  1 -1)  ( 0  0 -1)  (-1  1  0)

  ( 0  1 -1)  ( 0  1 -1)  ( 0  0  1)  ( 0  0  1)  ( 0  0  1)  ( 0  0  1)
  ( 0  0 -1)  (-1  1  0)  ( 1  0  0)  ( 0  1  0)  ( 0 -1  1)  (-1  0  1)
  ( 1  0 -1)  ( 0  1  0)  ( 0  1  0)  ( 1  0  0)  (-1  0  1)  ( 0 -1  1)

  ( 0  0 -1)  ( 0  0 -1)  ( 0  0 -1)  ( 0  0 -1)  ( 0 -1  1)  ( 0 -1  1)
  ( 1  0 -1)  ( 0  1 -1)  ( 0 -1  0)  (-1  0  0)  ( 1 -1  0)  ( 0  0  1)
  ( 0  1 -1)  ( 1  0 -1)  (-1  0  0)  ( 0 -1  0)  ( 0 -1  0)  (-1  0  1)

  ( 0 -1  1)  ( 0 -1  1)  ( 0 -1  0)  ( 0 -1  0)  ( 0 -1  0)  ( 0 -1  0)
  ( 0 -1  0)  (-1  0  1)  ( 1 -1  0)  ( 0  0 -1)  ( 0 -1  1)  (-1  0  0)
  ( 1 -1  0)  ( 0  0  1)  ( 0 -1  1)  (-1  0  0)  ( 1 -1  0)  ( 0  0 -1)

  (-1  1  0)  (-1  1  0)  (-1  1  0)  (-1  1  0)  (-1  0  1)  (-1  0  1)
  ( 0  1  0)  ( 0  1 -1)  (-1  0  1)  (-1  0  0)  ( 0  0  1)  ( 0 -1  1)
  ( 0  1 -1)  ( 0  1  0)  (-1  0  0)  (-1  0  1)  ( 0 -1  1)  ( 0  0  1)

  (-1  0  1)  (-1  0  1)  (-1  0  0)  (-1  0  0)  (-1  0  0)  (-1  0  0)
  (-1  1  0)  (-1  0  0)  ( 0  0 -1)  ( 0 -1  0)  (-1  1  0)  (-1  0  1)
  (-1  0  0)  (-1  1  0)  ( 0 -1  0)  ( 0  0 -1)  (-1  0  1)  (-1  1  0)

4913 k-points: 17 x 17 x 17 Monkhorst-Pack grid
165 k-points in the irreducible part of the Brillouin zone
       k-points in crystal coordinates                weights
   0:     0.00000000    0.00000000    0.00000000          1/4913
   1:     0.05882353    0.05882353    0.00000000          6/4913
   2:     0.05882353    0.05882353    0.05882353          8/4913
   3:     0.11764706    0.05882353    0.05882353         12/4913
   4:     0.11764706    0.11764706    0.00000000          6/4913
   5:     0.11764706    0.11764706    0.05882353         24/4913
   6:     0.11764706    0.11764706    0.11764706          8/4913
   7:     0.17647059    0.11764706    0.05882353         24/4913
   8:     0.17647059    0.11764706    0.11764706         24/4913
   9:     0.17647059    0.17647059    0.00000000          6/4913
          ...
 164:     0.47058824    0.47058824    0.47058824          8/4913

Wave functions: Plane wave expansion
  Cutoff energy: 300.000 eV
  Number of coefficients (min, max): 176, 202
  Pulay-stress correction: 0.000000 eV/Ang^3 (de/decut=0.000000)
  Using FFTW library
  ScaLapack parameters: grid=1x1, blocksize=None
  Wavefunction extrapolation:
    Improved wavefunction reuse through dual PAW basis 

Eigensolver
   Davidson(niter=2, smin=None, normalize=True) 

Densities:
  Coarse grid: 12*12*12 grid
  Fine grid: 24*24*24 grid
  Total Charge: 0.000000 

Density mixing:
  Method: separate
  Backend: pulay
  Linear mixing parameter: 0.05
  Mixing with 5 old densities
  Damping of long wave oscillations: 50 

Hamiltonian:
  XC and Coulomb potentials evaluated on a 24*24*24 grid
  Using the LDA Exchange-Correlation functional
 

Memory estimate:
  Process memory now: 105.99 MiB
  Calculator: 7.11 MiB
    Density: 0.68 MiB
      Arrays: 0.34 MiB
      Localized functions: 0.21 MiB
      Mixer: 0.13 MiB
    Hamiltonian: 0.23 MiB
      Arrays: 0.22 MiB
      XC: 0.00 MiB
      Poisson: 0.00 MiB
      vbar: 0.00 MiB
    Wavefunctions: 6.19 MiB
      Arrays psit_nG: 2.03 MiB
      Eigensolver: 0.03 MiB
      Projections: 0.13 MiB
      Projectors: 3.42 MiB
      PW-descriptor: 0.57 MiB

Total number of cores used: 1

Number of atoms: 1
Number of atomic orbitals: 4
Number of bands in calculation: 4
Bands to converge: occupied states only
Number of valence electrons: 3

... initialized

Initializing position-dependent things.

Density initialized from atomic densities
Creating initial wave functions:
  4 bands from LCAO basis set

                
                
                
       Al       
                
                
                
                

Positions:
   0 Al     0.000000    0.000000    0.000000    ( 0.0000,  0.0000,  0.0000)

Unit cell:
           periodic     x           y           z      points  spacing
  1. axis:    yes    0.000000    2.021500    2.021500    12     0.1945
  2. axis:    yes    2.021500    0.000000    2.021500    12     0.1945
  3. axis:    yes    2.021500    2.021500    0.000000    12     0.1945

  Lengths:   2.858833   2.858833   2.858833
  Angles:   60.000000  60.000000  60.000000

Effective grid spacing dv^(1/3) = 0.2122

                     log10-error:    total        iterations:
           time      wfs    density  energy       fermi  poisson
iter:   1  08:42:18  +1.20   +inf    -4.177075    3             
iter:   2  08:42:19  -2.65  -0.95    -4.177968    2             
iter:   3  08:42:19  -2.74  -0.96    -4.175134    3             
iter:   4  08:42:20  -3.97  -1.20    -4.173164    2             
iter:   5  08:42:21  -5.39  -2.17    -4.173488    2             
iter:   6  08:42:21  -5.07  -1.98    -4.173235    2             
iter:   7  08:42:22  -6.71  -2.72    -4.173229    2             
iter:   8  08:42:23  -8.38  -3.77    -4.173229    2             
iter:   9  08:42:23 -10.01  -4.14    -4.173229    1             

Converged after 9 iterations.

Dipole moment: (-0.000000, -0.000000, -0.000000) |e|*Ang

Energy contributions relative to reference atoms: (reference = -6578.421307)

Kinetic:         +4.044236
Potential:       -2.130833
External:        +0.000000
XC:              -6.074763
Entropy (-ST):   -0.012717
Local:           -0.005511
--------------------------
Free energy:     -4.179588
Extrapolated:    -4.173229

Fermi level: 6.93422

Showing only first 2 kpts
 Kpt  Band  Eigenvalues  Occupancy
  0     0     -4.15170    0.00041
  0     1     20.83479    0.00000
  0     2     20.83479    0.00000

  1     0     -4.02661    0.00244
  1     1     18.37719    0.00000
  1     2     18.37719    0.00000


No gap
Timing:                              incl.     excl.
-----------------------------------------------------------
Hamiltonian:                         0.017     0.000   0.0% |
 Atomic:                             0.014     0.000   0.0% |
  XC Correction:                     0.014     0.014   0.2% |
 Calculate atomic Hamiltonians:      0.000     0.000   0.0% |
 Communicate:                        0.000     0.000   0.0% |
 Initialize Hamiltonian:             0.000     0.000   0.0% |
 Poisson:                            0.000     0.000   0.0% |
 XC 3D grid:                         0.002     0.002   0.0% |
LCAO initialization:                 1.509     0.020   0.2% |
 LCAO eigensolver:                   0.358     0.006   0.1% |
  Calculate projections:             0.003     0.003   0.0% |
  DenseAtomicCorrection:             0.012     0.012   0.1% |
  Distribute overlap matrix:         0.003     0.003   0.0% |
  Orbital Layouts:                   0.011     0.011   0.1% |
  Potential matrix:                  0.025     0.025   0.3% |
  Sum over cells:                    0.298     0.298   3.3% ||
 LCAO to grid:                       0.603     0.603   6.7% |--|
 Set positions (LCAO WFS):           0.528     0.071   0.8% |
  Basic WFS set positions:           0.002     0.002   0.0% |
  Basis functions set positions:     0.000     0.000   0.0% |
  P tci:                             0.128     0.128   1.4% ||
  ST tci:                            0.307     0.307   3.4% ||
  mktci:                             0.021     0.021   0.2% |
PWDescriptor:                        0.012     0.012   0.1% |
SCF-cycle:                           6.405     0.181   2.0% ||
 Davidson:                           5.815     1.704  19.0% |-------|
  Apply H:                           0.348     0.287   3.2% ||
   HMM T:                            0.061     0.061   0.7% |
  Subspace diag:                     0.953     0.107   1.2% |
   calc_h_matrix:                    0.587     0.236   2.6% ||
    Apply H:                         0.351     0.287   3.2% ||
     HMM T:                          0.064     0.064   0.7% |
   diagonalize:                      0.154     0.154   1.7% ||
   rotate_psi:                       0.104     0.104   1.2% |
  calc. matrices:                    2.283     1.590  17.8% |------|
   Apply H:                          0.693     0.568   6.3% |--|
    HMM T:                           0.125     0.125   1.4% ||
  diagonalize:                       0.391     0.391   4.4% |-|
  rotate_psi:                        0.135     0.135   1.5% ||
 Density:                            0.191     0.000   0.0% |
  Atomic density matrices:           0.024     0.024   0.3% |
  Mix:                               0.009     0.009   0.1% |
  Multipole moments:                 0.001     0.001   0.0% |
  Pseudo density:                    0.157     0.110   1.2% |
   Symmetrize density:               0.047     0.047   0.5% |
 Hamiltonian:                        0.139     0.002   0.0% |
  Atomic:                            0.114     0.004   0.0% |
   XC Correction:                    0.110     0.110   1.2% |
  Calculate atomic Hamiltonians:     0.003     0.003   0.0% |
  Communicate:                       0.000     0.000   0.0% |
  Poisson:                           0.001     0.001   0.0% |
  XC 3D grid:                        0.019     0.019   0.2% |
 Orthonormalize:                     0.079     0.012   0.1% |
  calc_s_matrix:                     0.020     0.020   0.2% |
  inverse-cholesky:                  0.022     0.022   0.2% |
  projections:                       0.020     0.020   0.2% |
  rotate_psi_s:                      0.004     0.004   0.0% |
Set symmetry:                        0.339     0.339   3.8% |-|
Other:                               0.673     0.673   7.5% |--|
-----------------------------------------------------------
Total:                                         8.955 100.0%

Memory usage: 110.31 MiB
Date: Mon Mar  2 08:42:23 2020
