
  ___ ___ ___ _ _ _  
 |   |   |_  | | | | 
 | | | | | . | | | | 
 |__ |  _|___|_____|  19.8.1
 |___|_|             

User:   ericlin@hebbe04-1
Date:   Mon Mar  2 08:42:23 2020
Arch:   x86_64
Pid:    19531
Python: 3.7.2
gpaw:   /apps/Hebbe7/software/MPI/intel/2019.1.144-GCC-8.2.0-2.31.1/impi/2018.4.274/GPAW/19.8.1-Python-3.7.2/lib/python3.7/site-packages/gpaw
_gpaw:  /apps/Hebbe7/software/MPI/intel/2019.1.144-GCC-8.2.0-2.31.1/impi/2018.4.274/GPAW/19.8.1-Python-3.7.2/bin/
        gpaw-python
ase:    /apps/Hebbe7/software/MPI/intel/2019.1.144-GCC-8.2.0-2.31.1/impi/2018.4.274/ASE/3.18.0-Python-3.7.2/lib/python3.7/site-packages/ase (version 3.18.0)
numpy:  /apps/Hebbe7/software/MPI/intel/2019.1.144-GCC-8.2.0-2.31.1/impi/2018.4.274/SciPy-bundle/2019.03/lib/python3.7/site-packages/numpy (version 1.16.2)
scipy:  /apps/Hebbe7/software/MPI/intel/2019.1.144-GCC-8.2.0-2.31.1/impi/2018.4.274/SciPy-bundle/2019.03/lib/python3.7/site-packages/scipy (version 1.2.1)
libxc:  4.3.4
units:  Angstrom and eV
cores:  1

Input parameters:
  kpts: [22. 22. 22.]
  mode: {ecut: 300.0,
         gammacentered: False,
         name: pw}

System changes: positions, numbers, cell, pbc, initial_charges, initial_magmoms 

Initialize ...

Al-setup:
  name: Aluminium
  id: 2e6447feaea722efcff26bf034b25f30
  Z: 13
  valence: 3
  core: 10
  charge: 0.0
  file: /apps/Common/Core/GPAW-setups/0.9.20000/Al.LDA.gz
  compensation charges: gauss, rc=0.34, lmax=2
  cutoffs: 1.91(filt), 2.36(core),
  valence states:
                energy  radius
    3s(2.00)    -7.830   1.085
    3p(1.00)    -2.783   1.085
    *s          19.382   1.085
    *p          24.428   1.085
    *d           0.000   1.085

  Using partial waves for Al as LCAO basis

Reference energy: -6578.421307

Spin-paired calculation

Occupation numbers:
  Fermi-Dirac: width=0.1000 eV

Convergence criteria:
  Maximum total energy change: 0.0005 eV / electron
  Maximum integral of absolute density change: 0.0001 electrons
  Maximum integral of absolute eigenstate change: 4e-08 eV^2
  Maximum number of iterations: 333

Symmetries present (total): 48

  ( 1  0  0)  ( 1  0  0)  ( 1  0  0)  ( 1  0  0)  ( 1  0 -1)  ( 1  0 -1)
  ( 1  0 -1)  ( 1 -1  0)  ( 0  1  0)  ( 0  0  1)  ( 1  0  0)  ( 1 -1  0)
  ( 1 -1  0)  ( 1  0 -1)  ( 0  0  1)  ( 0  1  0)  ( 1 -1  0)  ( 1  0  0)

  ( 1  0 -1)  ( 1  0 -1)  ( 1 -1  0)  ( 1 -1  0)  ( 1 -1  0)  ( 1 -1  0)
  ( 0  1 -1)  ( 0  0 -1)  ( 1  0  0)  ( 1  0 -1)  ( 0 -1  1)  ( 0 -1  0)
  ( 0  0 -1)  ( 0  1 -1)  ( 1  0 -1)  ( 1  0  0)  ( 0 -1  0)  ( 0 -1  1)

  ( 0  1  0)  ( 0  1  0)  ( 0  1  0)  ( 0  1  0)  ( 0  1 -1)  ( 0  1 -1)
  ( 1  0  0)  ( 0  1 -1)  ( 0  0  1)  (-1  1  0)  ( 1  0 -1)  ( 0  1  0)
  ( 0  0  1)  (-1  1  0)  ( 1  0  0)  ( 0  1 -1)  ( 0  0 -1)  (-1  1  0)

  ( 0  1 -1)  ( 0  1 -1)  ( 0  0  1)  ( 0  0  1)  ( 0  0  1)  ( 0  0  1)
  ( 0  0 -1)  (-1  1  0)  ( 1  0  0)  ( 0  1  0)  ( 0 -1  1)  (-1  0  1)
  ( 1  0 -1)  ( 0  1  0)  ( 0  1  0)  ( 1  0  0)  (-1  0  1)  ( 0 -1  1)

  ( 0  0 -1)  ( 0  0 -1)  ( 0  0 -1)  ( 0  0 -1)  ( 0 -1  1)  ( 0 -1  1)
  ( 1  0 -1)  ( 0  1 -1)  ( 0 -1  0)  (-1  0  0)  ( 1 -1  0)  ( 0  0  1)
  ( 0  1 -1)  ( 1  0 -1)  (-1  0  0)  ( 0 -1  0)  ( 0 -1  0)  (-1  0  1)

  ( 0 -1  1)  ( 0 -1  1)  ( 0 -1  0)  ( 0 -1  0)  ( 0 -1  0)  ( 0 -1  0)
  ( 0 -1  0)  (-1  0  1)  ( 1 -1  0)  ( 0  0 -1)  ( 0 -1  1)  (-1  0  0)
  ( 1 -1  0)  ( 0  0  1)  ( 0 -1  1)  (-1  0  0)  ( 1 -1  0)  ( 0  0 -1)

  (-1  1  0)  (-1  1  0)  (-1  1  0)  (-1  1  0)  (-1  0  1)  (-1  0  1)
  ( 0  1  0)  ( 0  1 -1)  (-1  0  1)  (-1  0  0)  ( 0  0  1)  ( 0 -1  1)
  ( 0  1 -1)  ( 0  1  0)  (-1  0  0)  (-1  0  1)  ( 0 -1  1)  ( 0  0  1)

  (-1  0  1)  (-1  0  1)  (-1  0  0)  (-1  0  0)  (-1  0  0)  (-1  0  0)
  (-1  1  0)  (-1  0  0)  ( 0  0 -1)  ( 0 -1  0)  (-1  1  0)  (-1  0  1)
  (-1  0  0)  (-1  1  0)  ( 0 -1  0)  ( 0  0 -1)  (-1  0  1)  (-1  1  0)
Note: your k-points are not as symmetric as your crystal!

10648 k-points: 22 x 22 x 22 Monkhorst-Pack grid
1012 k-points in the irreducible part of the Brillouin zone
       k-points in crystal coordinates                weights
   0:     0.02272727    0.02272727   -0.02272727          6/10648
   1:     0.02272727    0.02272727    0.02272727          2/10648
   2:     0.06818182   -0.02272727   -0.02272727          6/10648
   3:     0.06818182    0.02272727   -0.06818182         12/10648
   4:     0.06818182    0.02272727   -0.02272727         12/10648
   5:     0.06818182    0.02272727    0.02272727          6/10648
   6:     0.06818182    0.06818182   -0.06818182          6/10648
   7:     0.06818182    0.06818182   -0.02272727          6/10648
   8:     0.06818182    0.06818182    0.02272727          6/10648
   9:     0.06818182    0.06818182    0.06818182          2/10648
          ...
1011:     0.47727273    0.47727273    0.47727273          2/10648

Wave functions: Plane wave expansion
  Cutoff energy: 300.000 eV
  Number of coefficients (min, max): 176, 204
  Pulay-stress correction: 0.000000 eV/Ang^3 (de/decut=0.000000)
  Using FFTW library
  ScaLapack parameters: grid=1x1, blocksize=None
  Wavefunction extrapolation:
    Improved wavefunction reuse through dual PAW basis 

Eigensolver
   Davidson(niter=2, smin=None, normalize=True) 

Densities:
  Coarse grid: 12*12*12 grid
  Fine grid: 24*24*24 grid
  Total Charge: 0.000000 

Density mixing:
  Method: separate
  Backend: pulay
  Linear mixing parameter: 0.05
  Mixing with 5 old densities
  Damping of long wave oscillations: 50 

Hamiltonian:
  XC and Coulomb potentials evaluated on a 24*24*24 grid
  Using the LDA Exchange-Correlation functional
 

Memory estimate:
  Process memory now: 114.14 MiB
  Calculator: 38.60 MiB
    Density: 0.68 MiB
      Arrays: 0.34 MiB
      Localized functions: 0.21 MiB
      Mixer: 0.13 MiB
    Hamiltonian: 0.23 MiB
      Arrays: 0.22 MiB
      XC: 0.00 MiB
      Poisson: 0.00 MiB
      vbar: 0.00 MiB
    Wavefunctions: 37.69 MiB
      Arrays psit_nG: 12.60 MiB
      Eigensolver: 0.03 MiB
      Projections: 0.80 MiB
      Projectors: 21.04 MiB
      PW-descriptor: 3.22 MiB

Total number of cores used: 1

Number of atoms: 1
Number of atomic orbitals: 4
Number of bands in calculation: 4
Bands to converge: occupied states only
Number of valence electrons: 3

... initialized

Initializing position-dependent things.

Density initialized from atomic densities
Creating initial wave functions:
  4 bands from LCAO basis set

                
                
                
       Al       
                
                
                
                

Positions:
   0 Al     0.000000    0.000000    0.000000    ( 0.0000,  0.0000,  0.0000)

Unit cell:
           periodic     x           y           z      points  spacing
  1. axis:    yes    0.000000    2.021500    2.021500    12     0.1945
  2. axis:    yes    2.021500    0.000000    2.021500    12     0.1945
  3. axis:    yes    2.021500    2.021500    0.000000    12     0.1945

  Lengths:   2.858833   2.858833   2.858833
  Angles:   60.000000  60.000000  60.000000

Effective grid spacing dv^(1/3) = 0.2122

                     log10-error:    total        iterations:
           time      wfs    density  energy       fermi  poisson
iter:   1  08:42:39  +1.20   +inf    -4.174590    2             
iter:   2  08:42:43  -2.65  -0.95    -4.175468    2             
iter:   3  08:42:47  -2.74  -0.96    -4.172537    3             
iter:   4  08:42:51  -3.97  -1.21    -4.170570    2             
iter:   5  08:42:56  -5.41  -2.16    -4.170867    2             
iter:   6  08:43:00  -5.05  -2.01    -4.170641    2             
iter:   7  08:43:04  -6.67  -2.69    -4.170636    2             
iter:   8  08:43:08  -8.23  -3.75    -4.170635    2             
iter:   9  08:43:13  -9.60  -4.06    -4.170635    1             

Converged after 9 iterations.

Dipole moment: (-0.000000, -0.000000, 0.000000) |e|*Ang

Energy contributions relative to reference atoms: (reference = -6578.421307)

Kinetic:         +4.045811
Potential:       -2.130343
External:        +0.000000
XC:              -6.073830
Entropy (-ST):   -0.013501
Local:           -0.005523
--------------------------
Free energy:     -4.177386
Extrapolated:    -4.170635

Fermi level: 6.95403

Showing only first 2 kpts
 Kpt  Band  Eigenvalues  Occupancy
  0     0     -4.10049    0.00113
  0     1     18.63776    0.00000
  0     2     19.00528    0.00000

  1     0     -4.13785    0.00038
  1     1     19.16838    0.00000
  1     2     19.73041    0.00000


No gap
Timing:                              incl.     excl.
-----------------------------------------------------------
Hamiltonian:                         0.018     0.000   0.0% |
 Atomic:                             0.014     0.001   0.0% |
  XC Correction:                     0.014     0.014   0.0% |
 Calculate atomic Hamiltonians:      0.000     0.000   0.0% |
 Communicate:                        0.000     0.000   0.0% |
 Initialize Hamiltonian:             0.000     0.000   0.0% |
 Poisson:                            0.000     0.000   0.0% |
 XC 3D grid:                         0.002     0.002   0.0% |
LCAO initialization:                 8.610     0.030   0.1% |
 LCAO eigensolver:                   2.085     0.037   0.1% |
  Calculate projections:             0.018     0.018   0.0% |
  DenseAtomicCorrection:             0.071     0.071   0.1% |
  Distribute overlap matrix:         0.018     0.018   0.0% |
  Orbital Layouts:                   0.068     0.068   0.1% |
  Potential matrix:                  0.027     0.027   0.1% |
  Sum over cells:                    1.847     1.847   3.8% |-|
 LCAO to grid:                       3.716     3.716   7.6% |--|
 Set positions (LCAO WFS):           2.779     0.362   0.7% |
  Basic WFS set positions:           0.002     0.002   0.0% |
  Basis functions set positions:     0.000     0.000   0.0% |
  P tci:                             0.721     0.721   1.5% ||
  ST tci:                            1.672     1.672   3.4% ||
  mktci:                             0.021     0.021   0.0% |
PWDescriptor:                        0.073     0.073   0.1% |
SCF-cycle:                          38.501     1.052   2.1% ||
 Davidson:                          35.954    10.519  21.4% |--------|
  Apply H:                           2.166     1.793   3.6% ||
   HMM T:                            0.373     0.373   0.8% |
  Subspace diag:                     5.924     0.669   1.4% ||
   calc_h_matrix:                    3.665     1.462   3.0% ||
    Apply H:                         2.203     1.795   3.7% ||
     HMM T:                          0.408     0.408   0.8% |
   diagonalize:                      0.948     0.948   1.9% ||
   rotate_psi:                       0.642     0.642   1.3% ||
  calc. matrices:                   14.106     9.798  19.9% |-------|
   Apply H:                          4.308     3.544   7.2% |--|
    HMM T:                           0.763     0.763   1.6% ||
  diagonalize:                       2.409     2.409   4.9% |-|
  rotate_psi:                        0.831     0.831   1.7% ||
 Density:                            0.876     0.000   0.0% |
  Atomic density matrices:           0.125     0.125   0.3% |
  Mix:                               0.010     0.010   0.0% |
  Multipole moments:                 0.001     0.001   0.0% |
  Pseudo density:                    0.739     0.693   1.4% ||
   Symmetrize density:               0.047     0.047   0.1% |
 Hamiltonian:                        0.142     0.002   0.0% |
  Atomic:                            0.116     0.005   0.0% |
   XC Correction:                    0.111     0.111   0.2% |
  Calculate atomic Hamiltonians:     0.003     0.003   0.0% |
  Communicate:                       0.000     0.000   0.0% |
  Poisson:                           0.001     0.001   0.0% |
  XC 3D grid:                        0.020     0.020   0.0% |
 Orthonormalize:                     0.478     0.075   0.2% |
  calc_s_matrix:                     0.123     0.123   0.2% |
  inverse-cholesky:                  0.136     0.136   0.3% |
  projections:                       0.116     0.116   0.2% |
  rotate_psi_s:                      0.028     0.028   0.1% |
Set symmetry:                        0.707     0.707   1.4% ||
Other:                               1.264     1.264   2.6% ||
-----------------------------------------------------------
Total:                                        49.174 100.0%

Memory usage: 150.76 MiB
Date: Mon Mar  2 08:43:13 2020
