
  ___ ___ ___ _ _ _  
 |   |   |_  | | | | 
 | | | | | . | | | | 
 |__ |  _|___|_____|  19.8.1
 |___|_|             

User:   ericlin@hebbe07-8
Date:   Wed Mar  4 07:18:37 2020
Arch:   x86_64
Pid:    14854
Python: 3.7.2
gpaw:   /apps/Hebbe7/software/MPI/intel/2019.1.144-GCC-8.2.0-2.31.1/impi/2018.4.274/GPAW/19.8.1-Python-3.7.2/lib/python3.7/site-packages/gpaw
_gpaw:  /apps/Hebbe7/software/MPI/intel/2019.1.144-GCC-8.2.0-2.31.1/impi/2018.4.274/GPAW/19.8.1-Python-3.7.2/bin/
        gpaw-python
ase:    /apps/Hebbe7/software/MPI/intel/2019.1.144-GCC-8.2.0-2.31.1/impi/2018.4.274/ASE/3.18.0-Python-3.7.2/lib/python3.7/site-packages/ase (version 3.18.0)
numpy:  /apps/Hebbe7/software/MPI/intel/2019.1.144-GCC-8.2.0-2.31.1/impi/2018.4.274/SciPy-bundle/2019.03/lib/python3.7/site-packages/numpy (version 1.16.2)
scipy:  /apps/Hebbe7/software/MPI/intel/2019.1.144-GCC-8.2.0-2.31.1/impi/2018.4.274/SciPy-bundle/2019.03/lib/python3.7/site-packages/scipy (version 1.2.1)
libxc:  4.3.4
units:  Angstrom and eV
cores:  1

Input parameters:
  kpts: [24 24 24]
  mode: {ecut: 300.0,
         gammacentered: False,
         name: pw}

System changes: positions, numbers, cell, pbc, initial_charges, initial_magmoms 

Initialize ...

Al-setup:
  name: Aluminium
  id: 2e6447feaea722efcff26bf034b25f30
  Z: 13
  valence: 3
  core: 10
  charge: 0.0
  file: /apps/Common/Core/GPAW-setups/0.9.20000/Al.LDA.gz
  compensation charges: gauss, rc=0.34, lmax=2
  cutoffs: 1.91(filt), 2.36(core),
  valence states:
                energy  radius
    3s(2.00)    -7.830   1.085
    3p(1.00)    -2.783   1.085
    *s          19.382   1.085
    *p          24.428   1.085
    *d           0.000   1.085

  Using partial waves for Al as LCAO basis

Reference energy: -6578.421307

Spin-paired calculation

Occupation numbers:
  Fermi-Dirac: width=0.1000 eV

Convergence criteria:
  Maximum total energy change: 0.0005 eV / electron
  Maximum integral of absolute density change: 0.0001 electrons
  Maximum integral of absolute eigenstate change: 4e-08 eV^2
  Maximum number of iterations: 333

Symmetries present (total): 48

  ( 1  0  0)  ( 1  0  0)  ( 1  0  0)  ( 1  0  0)  ( 1  0 -1)  ( 1  0 -1)
  ( 1  0 -1)  ( 1 -1  0)  ( 0  1  0)  ( 0  0  1)  ( 1  0  0)  ( 1 -1  0)
  ( 1 -1  0)  ( 1  0 -1)  ( 0  0  1)  ( 0  1  0)  ( 1 -1  0)  ( 1  0  0)

  ( 1  0 -1)  ( 1  0 -1)  ( 1 -1  0)  ( 1 -1  0)  ( 1 -1  0)  ( 1 -1  0)
  ( 0  1 -1)  ( 0  0 -1)  ( 1  0  0)  ( 1  0 -1)  ( 0 -1  1)  ( 0 -1  0)
  ( 0  0 -1)  ( 0  1 -1)  ( 1  0 -1)  ( 1  0  0)  ( 0 -1  0)  ( 0 -1  1)

  ( 0  1  0)  ( 0  1  0)  ( 0  1  0)  ( 0  1  0)  ( 0  1 -1)  ( 0  1 -1)
  ( 1  0  0)  ( 0  1 -1)  ( 0  0  1)  (-1  1  0)  ( 1  0 -1)  ( 0  1  0)
  ( 0  0  1)  (-1  1  0)  ( 1  0  0)  ( 0  1 -1)  ( 0  0 -1)  (-1  1  0)

  ( 0  1 -1)  ( 0  1 -1)  ( 0  0  1)  ( 0  0  1)  ( 0  0  1)  ( 0  0  1)
  ( 0  0 -1)  (-1  1  0)  ( 1  0  0)  ( 0  1  0)  ( 0 -1  1)  (-1  0  1)
  ( 1  0 -1)  ( 0  1  0)  ( 0  1  0)  ( 1  0  0)  (-1  0  1)  ( 0 -1  1)

  ( 0  0 -1)  ( 0  0 -1)  ( 0  0 -1)  ( 0  0 -1)  ( 0 -1  1)  ( 0 -1  1)
  ( 1  0 -1)  ( 0  1 -1)  ( 0 -1  0)  (-1  0  0)  ( 1 -1  0)  ( 0  0  1)
  ( 0  1 -1)  ( 1  0 -1)  (-1  0  0)  ( 0 -1  0)  ( 0 -1  0)  (-1  0  1)

  ( 0 -1  1)  ( 0 -1  1)  ( 0 -1  0)  ( 0 -1  0)  ( 0 -1  0)  ( 0 -1  0)
  ( 0 -1  0)  (-1  0  1)  ( 1 -1  0)  ( 0  0 -1)  ( 0 -1  1)  (-1  0  0)
  ( 1 -1  0)  ( 0  0  1)  ( 0 -1  1)  (-1  0  0)  ( 1 -1  0)  ( 0  0 -1)

  (-1  1  0)  (-1  1  0)  (-1  1  0)  (-1  1  0)  (-1  0  1)  (-1  0  1)
  ( 0  1  0)  ( 0  1 -1)  (-1  0  1)  (-1  0  0)  ( 0  0  1)  ( 0 -1  1)
  ( 0  1 -1)  ( 0  1  0)  (-1  0  0)  (-1  0  1)  ( 0 -1  1)  ( 0  0  1)

  (-1  0  1)  (-1  0  1)  (-1  0  0)  (-1  0  0)  (-1  0  0)  (-1  0  0)
  (-1  1  0)  (-1  0  0)  ( 0  0 -1)  ( 0 -1  0)  (-1  1  0)  (-1  0  1)
  (-1  0  0)  (-1  1  0)  ( 0 -1  0)  ( 0  0 -1)  (-1  0  1)  (-1  1  0)
Note: your k-points are not as symmetric as your crystal!

13824 k-points: 24 x 24 x 24 Monkhorst-Pack grid
1300 k-points in the irreducible part of the Brillouin zone
       k-points in crystal coordinates                weights
   0:     0.02083333    0.02083333   -0.02083333          6/13824
   1:     0.02083333    0.02083333    0.02083333          2/13824
   2:     0.06250000   -0.02083333   -0.02083333          6/13824
   3:     0.06250000    0.02083333   -0.06250000         12/13824
   4:     0.06250000    0.02083333   -0.02083333         12/13824
   5:     0.06250000    0.02083333    0.02083333          6/13824
   6:     0.06250000    0.06250000   -0.06250000          6/13824
   7:     0.06250000    0.06250000   -0.02083333          6/13824
   8:     0.06250000    0.06250000    0.02083333          6/13824
   9:     0.06250000    0.06250000    0.06250000          2/13824
          ...
1299:     0.47916667    0.47916667    0.47916667          2/13824

Wave functions: Plane wave expansion
  Cutoff energy: 300.000 eV
  Number of coefficients (min, max): 176, 204
  Pulay-stress correction: 0.000000 eV/Ang^3 (de/decut=0.000000)
  Using FFTW library
  ScaLapack parameters: grid=1x1, blocksize=None
  Wavefunction extrapolation:
    Improved wavefunction reuse through dual PAW basis 

Eigensolver
   Davidson(niter=2, smin=None, normalize=True) 

Densities:
  Coarse grid: 12*12*12 grid
  Fine grid: 24*24*24 grid
  Total Charge: 0.000000 

Density mixing:
  Method: separate
  Backend: pulay
  Linear mixing parameter: 0.05
  Mixing with 5 old densities
  Damping of long wave oscillations: 50 

Hamiltonian:
  XC and Coulomb potentials evaluated on a 24*24*24 grid
  Using the LDA Exchange-Correlation functional
 

Memory estimate:
  Process memory now: 141.01 MiB
  Calculator: 49.31 MiB
    Density: 0.68 MiB
      Arrays: 0.34 MiB
      Localized functions: 0.21 MiB
      Mixer: 0.13 MiB
    Hamiltonian: 0.23 MiB
      Arrays: 0.22 MiB
      XC: 0.00 MiB
      Poisson: 0.00 MiB
      vbar: 0.00 MiB
    Wavefunctions: 48.39 MiB
      Arrays psit_nG: 16.19 MiB
      Eigensolver: 0.03 MiB
      Projections: 1.03 MiB
      Projectors: 27.03 MiB
      PW-descriptor: 4.11 MiB

Total number of cores used: 1

Number of atoms: 1
Number of atomic orbitals: 4
Number of bands in calculation: 4
Bands to converge: occupied states only
Number of valence electrons: 3

... initialized

Initializing position-dependent things.

Density initialized from atomic densities
Creating initial wave functions:
  4 bands from LCAO basis set

                
                
                
       Al       
                
                
                
                

Positions:
   0 Al     0.000000    0.000000    0.000000    ( 0.0000,  0.0000,  0.0000)

Unit cell:
           periodic     x           y           z      points  spacing
  1. axis:    yes    0.000000    2.021500    2.021500    12     0.1945
  2. axis:    yes    2.021500    0.000000    2.021500    12     0.1945
  3. axis:    yes    2.021500    2.021500    0.000000    12     0.1945

  Lengths:   2.858833   2.858833   2.858833
  Angles:   60.000000  60.000000  60.000000

Effective grid spacing dv^(1/3) = 0.2122

                     log10-error:    total        iterations:
           time      wfs    density  energy       fermi  poisson
iter:   1  07:18:56  +1.20   +inf    -4.174535    2             
iter:   2  07:19:01  -2.65  -0.95    -4.175417    2             
iter:   3  07:19:07  -2.74  -0.96    -4.172497    2             
iter:   4  07:19:12  -3.97  -1.21    -4.170524    2             
iter:   5  07:19:17  -5.41  -2.16    -4.170824    2             
iter:   6  07:19:23  -5.05  -2.01    -4.170595    2             
iter:   7  07:19:28  -6.67  -2.69    -4.170590    2             
iter:   8  07:19:33  -8.22  -3.75    -4.170590    2             
iter:   9  07:19:39  -9.61  -4.06    -4.170590    1             

Converged after 9 iterations.

Dipole moment: (-0.000000, 0.000000, 0.000000) |e|*Ang

Energy contributions relative to reference atoms: (reference = -6578.421307)

Kinetic:         +4.049547
Potential:       -2.133787
External:        +0.000000
XC:              -6.074038
Entropy (-ST):   -0.013577
Local:           -0.005524
--------------------------
Free energy:     -4.177378
Extrapolated:    -4.170590

Fermi level: 6.95016

Showing only first 2 kpts
 Kpt  Band  Eigenvalues  Occupancy
  0     0     -4.10868    0.00087
  0     1     18.74992    0.00000
  0     2     19.07368    0.00000

  1     0     -4.14008    0.00029
  1     1     19.23286    0.00000
  1     2     19.80064    0.00000


No gap
Timing:                              incl.     excl.
-----------------------------------------------------------
Hamiltonian:                         0.017     0.000   0.0% |
 Atomic:                             0.014     0.000   0.0% |
  XC Correction:                     0.014     0.014   0.0% |
 Calculate atomic Hamiltonians:      0.000     0.000   0.0% |
 Communicate:                        0.000     0.000   0.0% |
 Initialize Hamiltonian:             0.000     0.000   0.0% |
 Poisson:                            0.000     0.000   0.0% |
 XC 3D grid:                         0.002     0.002   0.0% |
LCAO initialization:                11.148     0.033   0.1% |
 LCAO eigensolver:                   2.654     0.046   0.1% |
  Calculate projections:             0.023     0.023   0.0% |
  DenseAtomicCorrection:             0.086     0.086   0.1% |
  Distribute overlap matrix:         0.022     0.022   0.0% |
  Orbital Layouts:                   0.087     0.087   0.1% |
  Potential matrix:                  0.028     0.028   0.0% |
  Sum over cells:                    2.362     2.362   3.8% |-|
 LCAO to grid:                       4.848     4.848   7.8% |--|
 Set positions (LCAO WFS):           3.614     0.482   0.8% |
  Basic WFS set positions:           0.002     0.002   0.0% |
  Basis functions set positions:     0.000     0.000   0.0% |
  P tci:                             0.921     0.921   1.5% ||
  ST tci:                            2.189     2.189   3.5% ||
  mktci:                             0.020     0.020   0.0% |
PWDescriptor:                        0.093     0.093   0.1% |
SCF-cycle:                          48.642     1.288   2.1% ||
 Davidson:                          45.511    13.120  21.1% |-------|
  Apply H:                           2.741     2.274   3.7% ||
   HMM T:                            0.467     0.467   0.7% |
  Subspace diag:                     7.529     0.850   1.4% ||
   calc_h_matrix:                    4.613     1.852   3.0% ||
    Apply H:                         2.761     2.272   3.7% ||
     HMM T:                          0.489     0.489   0.8% |
   diagonalize:                      1.233     1.233   2.0% ||
   rotate_psi:                       0.834     0.834   1.3% ||
  calc. matrices:                   17.946    12.508  20.1% |-------|
   Apply H:                          5.438     4.495   7.2% |--|
    HMM T:                           0.942     0.942   1.5% ||
  diagonalize:                       3.115     3.115   5.0% |-|
  rotate_psi:                        1.059     1.059   1.7% ||
 Density:                            1.075     0.000   0.0% |
  Atomic density matrices:           0.155     0.155   0.2% |
  Mix:                               0.011     0.011   0.0% |
  Multipole moments:                 0.001     0.001   0.0% |
  Pseudo density:                    0.909     0.862   1.4% ||
   Symmetrize density:               0.047     0.047   0.1% |
 Hamiltonian:                        0.144     0.002   0.0% |
  Atomic:                            0.118     0.004   0.0% |
   XC Correction:                    0.115     0.115   0.2% |
  Calculate atomic Hamiltonians:     0.003     0.003   0.0% |
  Communicate:                       0.000     0.000   0.0% |
  Poisson:                           0.001     0.001   0.0% |
  XC 3D grid:                        0.019     0.019   0.0% |
 Orthonormalize:                     0.625     0.096   0.2% |
  calc_s_matrix:                     0.158     0.158   0.3% |
  inverse-cholesky:                  0.176     0.176   0.3% |
  projections:                       0.160     0.160   0.3% |
  rotate_psi_s:                      0.035     0.035   0.1% |
Set symmetry:                        0.897     0.897   1.4% ||
Other:                               1.426     1.426   2.3% ||
-----------------------------------------------------------
Total:                                        62.224 100.0%

Memory usage: 169.81 MiB
Date: Wed Mar  4 07:19:39 2020
