
  ___ ___ ___ _ _ _  
 |   |   |_  | | | | 
 | | | | | . | | | | 
 |__ |  _|___|_____|  19.8.1
 |___|_|             

User:   ericlin@hebbe03-7
Date:   Thu Mar  5 03:21:26 2020
Arch:   x86_64
Pid:    4714
Python: 3.7.2
gpaw:   /apps/Hebbe7/software/MPI/intel/2019.1.144-GCC-8.2.0-2.31.1/impi/2018.4.274/GPAW/19.8.1-Python-3.7.2/lib/python3.7/site-packages/gpaw
_gpaw:  /apps/Hebbe7/software/MPI/intel/2019.1.144-GCC-8.2.0-2.31.1/impi/2018.4.274/GPAW/19.8.1-Python-3.7.2/bin/
        gpaw-python
ase:    /apps/Hebbe7/software/MPI/intel/2019.1.144-GCC-8.2.0-2.31.1/impi/2018.4.274/ASE/3.18.0-Python-3.7.2/lib/python3.7/site-packages/ase (version 3.18.0)
numpy:  /apps/Hebbe7/software/MPI/intel/2019.1.144-GCC-8.2.0-2.31.1/impi/2018.4.274/SciPy-bundle/2019.03/lib/python3.7/site-packages/numpy (version 1.16.2)
scipy:  /apps/Hebbe7/software/MPI/intel/2019.1.144-GCC-8.2.0-2.31.1/impi/2018.4.274/SciPy-bundle/2019.03/lib/python3.7/site-packages/scipy (version 1.2.1)
libxc:  4.3.4
units:  Angstrom and eV
cores:  1

Input parameters:
  kpts: [24 24 24]
  mode: {ecut: 300.0,
         gammacentered: False,
         name: pw}

System changes: positions, numbers, cell, pbc, initial_charges, initial_magmoms 

Initialize ...

Al-setup:
  name: Aluminium
  id: 2e6447feaea722efcff26bf034b25f30
  Z: 13
  valence: 3
  core: 10
  charge: 0.0
  file: /apps/Common/Core/GPAW-setups/0.9.20000/Al.LDA.gz
  compensation charges: gauss, rc=0.34, lmax=2
  cutoffs: 1.91(filt), 2.36(core),
  valence states:
                energy  radius
    3s(2.00)    -7.830   1.085
    3p(1.00)    -2.783   1.085
    *s          19.382   1.085
    *p          24.428   1.085
    *d           0.000   1.085

  Using partial waves for Al as LCAO basis

Reference energy: -6578.421307

Spin-paired calculation

Occupation numbers:
  Fermi-Dirac: width=0.1000 eV

Convergence criteria:
  Maximum total energy change: 0.0005 eV / electron
  Maximum integral of absolute density change: 0.0001 electrons
  Maximum integral of absolute eigenstate change: 4e-08 eV^2
  Maximum number of iterations: 333

Symmetries present (total): 48

  ( 1  0  0)  ( 1  0  0)  ( 1  0  0)  ( 1  0  0)  ( 1  0 -1)  ( 1  0 -1)
  ( 1  0 -1)  ( 1 -1  0)  ( 0  1  0)  ( 0  0  1)  ( 1  0  0)  ( 1 -1  0)
  ( 1 -1  0)  ( 1  0 -1)  ( 0  0  1)  ( 0  1  0)  ( 1 -1  0)  ( 1  0  0)

  ( 1  0 -1)  ( 1  0 -1)  ( 1 -1  0)  ( 1 -1  0)  ( 1 -1  0)  ( 1 -1  0)
  ( 0  1 -1)  ( 0  0 -1)  ( 1  0  0)  ( 1  0 -1)  ( 0 -1  1)  ( 0 -1  0)
  ( 0  0 -1)  ( 0  1 -1)  ( 1  0 -1)  ( 1  0  0)  ( 0 -1  0)  ( 0 -1  1)

  ( 0  1  0)  ( 0  1  0)  ( 0  1  0)  ( 0  1  0)  ( 0  1 -1)  ( 0  1 -1)
  ( 1  0  0)  ( 0  1 -1)  ( 0  0  1)  (-1  1  0)  ( 1  0 -1)  ( 0  1  0)
  ( 0  0  1)  (-1  1  0)  ( 1  0  0)  ( 0  1 -1)  ( 0  0 -1)  (-1  1  0)

  ( 0  1 -1)  ( 0  1 -1)  ( 0  0  1)  ( 0  0  1)  ( 0  0  1)  ( 0  0  1)
  ( 0  0 -1)  (-1  1  0)  ( 1  0  0)  ( 0  1  0)  ( 0 -1  1)  (-1  0  1)
  ( 1  0 -1)  ( 0  1  0)  ( 0  1  0)  ( 1  0  0)  (-1  0  1)  ( 0 -1  1)

  ( 0  0 -1)  ( 0  0 -1)  ( 0  0 -1)  ( 0  0 -1)  ( 0 -1  1)  ( 0 -1  1)
  ( 1  0 -1)  ( 0  1 -1)  ( 0 -1  0)  (-1  0  0)  ( 1 -1  0)  ( 0  0  1)
  ( 0  1 -1)  ( 1  0 -1)  (-1  0  0)  ( 0 -1  0)  ( 0 -1  0)  (-1  0  1)

  ( 0 -1  1)  ( 0 -1  1)  ( 0 -1  0)  ( 0 -1  0)  ( 0 -1  0)  ( 0 -1  0)
  ( 0 -1  0)  (-1  0  1)  ( 1 -1  0)  ( 0  0 -1)  ( 0 -1  1)  (-1  0  0)
  ( 1 -1  0)  ( 0  0  1)  ( 0 -1  1)  (-1  0  0)  ( 1 -1  0)  ( 0  0 -1)

  (-1  1  0)  (-1  1  0)  (-1  1  0)  (-1  1  0)  (-1  0  1)  (-1  0  1)
  ( 0  1  0)  ( 0  1 -1)  (-1  0  1)  (-1  0  0)  ( 0  0  1)  ( 0 -1  1)
  ( 0  1 -1)  ( 0  1  0)  (-1  0  0)  (-1  0  1)  ( 0 -1  1)  ( 0  0  1)

  (-1  0  1)  (-1  0  1)  (-1  0  0)  (-1  0  0)  (-1  0  0)  (-1  0  0)
  (-1  1  0)  (-1  0  0)  ( 0  0 -1)  ( 0 -1  0)  (-1  1  0)  (-1  0  1)
  (-1  0  0)  (-1  1  0)  ( 0 -1  0)  ( 0  0 -1)  (-1  0  1)  (-1  1  0)
Note: your k-points are not as symmetric as your crystal!

13824 k-points: 24 x 24 x 24 Monkhorst-Pack grid
1300 k-points in the irreducible part of the Brillouin zone
       k-points in crystal coordinates                weights
   0:     0.02083333    0.02083333   -0.02083333          6/13824
   1:     0.02083333    0.02083333    0.02083333          2/13824
   2:     0.06250000   -0.02083333   -0.02083333          6/13824
   3:     0.06250000    0.02083333   -0.06250000         12/13824
   4:     0.06250000    0.02083333   -0.02083333         12/13824
   5:     0.06250000    0.02083333    0.02083333          6/13824
   6:     0.06250000    0.06250000   -0.06250000          6/13824
   7:     0.06250000    0.06250000   -0.02083333          6/13824
   8:     0.06250000    0.06250000    0.02083333          6/13824
   9:     0.06250000    0.06250000    0.06250000          2/13824
          ...
1299:     0.47916667    0.47916667    0.47916667          2/13824

Wave functions: Plane wave expansion
  Cutoff energy: 300.000 eV
  Number of coefficients (min, max): 176, 204
  Pulay-stress correction: 0.000000 eV/Ang^3 (de/decut=0.000000)
  Using FFTW library
  ScaLapack parameters: grid=1x1, blocksize=None
  Wavefunction extrapolation:
    Improved wavefunction reuse through dual PAW basis 

Eigensolver
   Davidson(niter=2, smin=None, normalize=True) 

Densities:
  Coarse grid: 12*12*12 grid
  Fine grid: 24*24*24 grid
  Total Charge: 0.000000 

Density mixing:
  Method: separate
  Backend: pulay
  Linear mixing parameter: 0.05
  Mixing with 5 old densities
  Damping of long wave oscillations: 50 

Hamiltonian:
  XC and Coulomb potentials evaluated on a 24*24*24 grid
  Using the LDA Exchange-Correlation functional
 

Memory estimate:
  Process memory now: 140.98 MiB
  Calculator: 49.31 MiB
    Density: 0.68 MiB
      Arrays: 0.34 MiB
      Localized functions: 0.21 MiB
      Mixer: 0.13 MiB
    Hamiltonian: 0.23 MiB
      Arrays: 0.22 MiB
      XC: 0.00 MiB
      Poisson: 0.00 MiB
      vbar: 0.00 MiB
    Wavefunctions: 48.39 MiB
      Arrays psit_nG: 16.19 MiB
      Eigensolver: 0.03 MiB
      Projections: 1.03 MiB
      Projectors: 27.03 MiB
      PW-descriptor: 4.11 MiB

Total number of cores used: 1

Number of atoms: 1
Number of atomic orbitals: 4
Number of bands in calculation: 4
Bands to converge: occupied states only
Number of valence electrons: 3

... initialized

Initializing position-dependent things.

Density initialized from atomic densities
Creating initial wave functions:
  4 bands from LCAO basis set

                
                
                
       Al       
                
                
                
                

Positions:
   0 Al     0.000000    0.000000    0.000000    ( 0.0000,  0.0000,  0.0000)

Unit cell:
           periodic     x           y           z      points  spacing
  1. axis:    yes    0.000000    2.021500    2.021500    12     0.1945
  2. axis:    yes    2.021500    0.000000    2.021500    12     0.1945
  3. axis:    yes    2.021500    2.021500    0.000000    12     0.1945

  Lengths:   2.858833   2.858833   2.858833
  Angles:   60.000000  60.000000  60.000000

Effective grid spacing dv^(1/3) = 0.2122

                     log10-error:    total        iterations:
           time      wfs    density  energy       fermi  poisson
iter:   1  03:21:54  +1.20   +inf    -4.174535    2             
iter:   2  03:22:01  -2.65  -0.95    -4.175417    2             
iter:   3  03:22:08  -2.74  -0.96    -4.172497    2             
iter:   4  03:22:15  -3.97  -1.21    -4.170524    2             
iter:   5  03:22:22  -5.41  -2.16    -4.170824    2             
iter:   6  03:22:29  -5.05  -2.01    -4.170595    2             
iter:   7  03:22:36  -6.67  -2.69    -4.170590    2             
iter:   8  03:22:43  -8.22  -3.75    -4.170590    2             
iter:   9  03:22:50  -9.61  -4.06    -4.170590    1             

Converged after 9 iterations.

Dipole moment: (-0.000000, 0.000000, 0.000000) |e|*Ang

Energy contributions relative to reference atoms: (reference = -6578.421307)

Kinetic:         +4.049547
Potential:       -2.133787
External:        +0.000000
XC:              -6.074038
Entropy (-ST):   -0.013577
Local:           -0.005524
--------------------------
Free energy:     -4.177378
Extrapolated:    -4.170590

Fermi level: 6.95016

Showing only first 2 kpts
 Kpt  Band  Eigenvalues  Occupancy
  0     0     -4.10868    0.00087
  0     1     18.74992    0.00000
  0     2     19.07368    0.00000

  1     0     -4.14008    0.00029
  1     1     19.23286    0.00000
  1     2     19.80064    0.00000


No gap
Timing:                              incl.     excl.
-----------------------------------------------------------
Hamiltonian:                         0.020     0.000   0.0% |
 Atomic:                             0.016     0.001   0.0% |
  XC Correction:                     0.016     0.016   0.0% |
 Calculate atomic Hamiltonians:      0.000     0.000   0.0% |
 Communicate:                        0.000     0.000   0.0% |
 Initialize Hamiltonian:             0.000     0.000   0.0% |
 Poisson:                            0.000     0.000   0.0% |
 XC 3D grid:                         0.003     0.003   0.0% |
LCAO initialization:                17.993     0.044   0.1% |
 LCAO eigensolver:                   3.480     0.099   0.1% |
  Calculate projections:             0.046     0.046   0.1% |
  DenseAtomicCorrection:             0.206     0.206   0.2% |
  Distribute overlap matrix:         0.052     0.052   0.1% |
  Orbital Layouts:                   0.206     0.206   0.2% |
  Potential matrix:                  0.030     0.030   0.0% |
  Sum over cells:                    2.842     2.842   3.4% ||
 LCAO to grid:                       9.929     9.929  11.8% |----|
 Set positions (LCAO WFS):           4.540     0.604   0.7% |
  Basic WFS set positions:           0.002     0.002   0.0% |
  Basis functions set positions:     0.000     0.000   0.0% |
  P tci:                             1.122     1.122   1.3% ||
  ST tci:                            2.789     2.789   3.3% ||
  mktci:                             0.023     0.023   0.0% |
PWDescriptor:                        0.108     0.108   0.1% |
SCF-cycle:                          63.488     1.671   2.0% ||
 Davidson:                          59.561    17.098  20.2% |-------|
  Apply H:                           3.273     2.711   3.2% ||
   HMM T:                            0.562     0.562   0.7% |
  Subspace diag:                    10.121     1.142   1.4% ||
   calc_h_matrix:                    5.753     2.347   2.8% ||
    Apply H:                         3.406     2.792   3.3% ||
     HMM T:                          0.615     0.615   0.7% |
   diagonalize:                      2.233     2.233   2.6% ||
   rotate_psi:                       0.993     0.993   1.2% |
  calc. matrices:                   21.563    15.079  17.8% |------|
   Apply H:                          6.483     5.349   6.3% |--|
    HMM T:                           1.135     1.135   1.3% ||
  diagonalize:                       6.262     6.262   7.4% |--|
  rotate_psi:                        1.243     1.243   1.5% ||
 Density:                            1.218     0.000   0.0% |
  Atomic density matrices:           0.187     0.187   0.2% |
  Mix:                               0.014     0.014   0.0% |
  Multipole moments:                 0.001     0.001   0.0% |
  Pseudo density:                    1.015     0.958   1.1% |
   Symmetrize density:               0.057     0.057   0.1% |
 Hamiltonian:                        0.166     0.003   0.0% |
  Atomic:                            0.132     0.006   0.0% |
   XC Correction:                    0.127     0.127   0.2% |
  Calculate atomic Hamiltonians:     0.005     0.005   0.0% |
  Communicate:                       0.000     0.000   0.0% |
  Poisson:                           0.001     0.001   0.0% |
  XC 3D grid:                        0.024     0.024   0.0% |
 Orthonormalize:                     0.873     0.126   0.1% |
  calc_s_matrix:                     0.190     0.190   0.2% |
  inverse-cholesky:                  0.284     0.284   0.3% |
  projections:                       0.232     0.232   0.3% |
  rotate_psi_s:                      0.040     0.040   0.0% |
Set symmetry:                        1.176     1.176   1.4% ||
Other:                               1.705     1.705   2.0% ||
-----------------------------------------------------------
Total:                                        84.490 100.0%

Memory usage: 165.83 MiB
Date: Thu Mar  5 03:22:50 2020
