
  ___ ___ ___ _ _ _  
 |   |   |_  | | | | 
 | | | | | . | | | | 
 |__ |  _|___|_____|  19.8.1
 |___|_|             

User:   ericlin@hebbe05-9
Date:   Mon Mar  2 08:56:04 2020
Arch:   x86_64
Pid:    14509
Python: 3.7.2
gpaw:   /apps/Hebbe7/software/MPI/intel/2019.1.144-GCC-8.2.0-2.31.1/impi/2018.4.274/GPAW/19.8.1-Python-3.7.2/lib/python3.7/site-packages/gpaw
_gpaw:  /apps/Hebbe7/software/MPI/intel/2019.1.144-GCC-8.2.0-2.31.1/impi/2018.4.274/GPAW/19.8.1-Python-3.7.2/bin/
        gpaw-python
ase:    /apps/Hebbe7/software/MPI/intel/2019.1.144-GCC-8.2.0-2.31.1/impi/2018.4.274/ASE/3.18.0-Python-3.7.2/lib/python3.7/site-packages/ase (version 3.18.0)
numpy:  /apps/Hebbe7/software/MPI/intel/2019.1.144-GCC-8.2.0-2.31.1/impi/2018.4.274/SciPy-bundle/2019.03/lib/python3.7/site-packages/numpy (version 1.16.2)
scipy:  /apps/Hebbe7/software/MPI/intel/2019.1.144-GCC-8.2.0-2.31.1/impi/2018.4.274/SciPy-bundle/2019.03/lib/python3.7/site-packages/scipy (version 1.2.1)
libxc:  4.3.4
units:  Angstrom and eV
cores:  10

Input parameters:
  kpts: [24 24 24]
  mode: {ecut: 300.0,
         gammacentered: False,
         name: pw}

System changes: positions, numbers, cell, pbc, initial_charges, initial_magmoms 

Initialize ...

Al-setup:
  name: Aluminium
  id: 2e6447feaea722efcff26bf034b25f30
  Z: 13
  valence: 3
  core: 10
  charge: 0.0
  file: /apps/Common/Core/GPAW-setups/0.9.20000/Al.LDA.gz
  compensation charges: gauss, rc=0.34, lmax=2
  cutoffs: 1.91(filt), 2.36(core),
  valence states:
                energy  radius
    3s(2.00)    -7.830   1.085
    3p(1.00)    -2.783   1.085
    *s          19.382   1.085
    *p          24.428   1.085
    *d           0.000   1.085

  Using partial waves for Al as LCAO basis

Reference energy: -6578.421307

Spin-paired calculation

Occupation numbers:
  Fermi-Dirac: width=0.1000 eV

Convergence criteria:
  Maximum total energy change: 0.0005 eV / electron
  Maximum integral of absolute density change: 0.0001 electrons
  Maximum integral of absolute eigenstate change: 4e-08 eV^2
  Maximum number of iterations: 333

Symmetries present (total): 48

  ( 1  0  0)  ( 1  0  0)  ( 1  0  0)  ( 1  0  0)  ( 1  0 -1)  ( 1  0 -1)
  ( 1  0 -1)  ( 1 -1  0)  ( 0  1  0)  ( 0  0  1)  ( 1  0  0)  ( 1 -1  0)
  ( 1 -1  0)  ( 1  0 -1)  ( 0  0  1)  ( 0  1  0)  ( 1 -1  0)  ( 1  0  0)

  ( 1  0 -1)  ( 1  0 -1)  ( 1 -1  0)  ( 1 -1  0)  ( 1 -1  0)  ( 1 -1  0)
  ( 0  1 -1)  ( 0  0 -1)  ( 1  0  0)  ( 1  0 -1)  ( 0 -1  1)  ( 0 -1  0)
  ( 0  0 -1)  ( 0  1 -1)  ( 1  0 -1)  ( 1  0  0)  ( 0 -1  0)  ( 0 -1  1)

  ( 0  1  0)  ( 0  1  0)  ( 0  1  0)  ( 0  1  0)  ( 0  1 -1)  ( 0  1 -1)
  ( 1  0  0)  ( 0  1 -1)  ( 0  0  1)  (-1  1  0)  ( 1  0 -1)  ( 0  1  0)
  ( 0  0  1)  (-1  1  0)  ( 1  0  0)  ( 0  1 -1)  ( 0  0 -1)  (-1  1  0)

  ( 0  1 -1)  ( 0  1 -1)  ( 0  0  1)  ( 0  0  1)  ( 0  0  1)  ( 0  0  1)
  ( 0  0 -1)  (-1  1  0)  ( 1  0  0)  ( 0  1  0)  ( 0 -1  1)  (-1  0  1)
  ( 1  0 -1)  ( 0  1  0)  ( 0  1  0)  ( 1  0  0)  (-1  0  1)  ( 0 -1  1)

  ( 0  0 -1)  ( 0  0 -1)  ( 0  0 -1)  ( 0  0 -1)  ( 0 -1  1)  ( 0 -1  1)
  ( 1  0 -1)  ( 0  1 -1)  ( 0 -1  0)  (-1  0  0)  ( 1 -1  0)  ( 0  0  1)
  ( 0  1 -1)  ( 1  0 -1)  (-1  0  0)  ( 0 -1  0)  ( 0 -1  0)  (-1  0  1)

  ( 0 -1  1)  ( 0 -1  1)  ( 0 -1  0)  ( 0 -1  0)  ( 0 -1  0)  ( 0 -1  0)
  ( 0 -1  0)  (-1  0  1)  ( 1 -1  0)  ( 0  0 -1)  ( 0 -1  1)  (-1  0  0)
  ( 1 -1  0)  ( 0  0  1)  ( 0 -1  1)  (-1  0  0)  ( 1 -1  0)  ( 0  0 -1)

  (-1  1  0)  (-1  1  0)  (-1  1  0)  (-1  1  0)  (-1  0  1)  (-1  0  1)
  ( 0  1  0)  ( 0  1 -1)  (-1  0  1)  (-1  0  0)  ( 0  0  1)  ( 0 -1  1)
  ( 0  1 -1)  ( 0  1  0)  (-1  0  0)  (-1  0  1)  ( 0 -1  1)  ( 0  0  1)

  (-1  0  1)  (-1  0  1)  (-1  0  0)  (-1  0  0)  (-1  0  0)  (-1  0  0)
  (-1  1  0)  (-1  0  0)  ( 0  0 -1)  ( 0 -1  0)  (-1  1  0)  (-1  0  1)
  (-1  0  0)  (-1  1  0)  ( 0 -1  0)  ( 0  0 -1)  (-1  0  1)  (-1  1  0)
Note: your k-points are not as symmetric as your crystal!

13824 k-points: 24 x 24 x 24 Monkhorst-Pack grid
1300 k-points in the irreducible part of the Brillouin zone
       k-points in crystal coordinates                weights
   0:     0.02083333    0.02083333   -0.02083333          6/13824
   1:     0.02083333    0.02083333    0.02083333          2/13824
   2:     0.06250000   -0.02083333   -0.02083333          6/13824
   3:     0.06250000    0.02083333   -0.06250000         12/13824
   4:     0.06250000    0.02083333   -0.02083333         12/13824
   5:     0.06250000    0.02083333    0.02083333          6/13824
   6:     0.06250000    0.06250000   -0.06250000          6/13824
   7:     0.06250000    0.06250000   -0.02083333          6/13824
   8:     0.06250000    0.06250000    0.02083333          6/13824
   9:     0.06250000    0.06250000    0.06250000          2/13824
          ...
1299:     0.47916667    0.47916667    0.47916667          2/13824

Wave functions: Plane wave expansion
  Cutoff energy: 300.000 eV
  Number of coefficients (min, max): 176, 204
  Pulay-stress correction: 0.000000 eV/Ang^3 (de/decut=0.000000)
  Using FFTW library
  ScaLapack parameters: grid=1x1, blocksize=None
  Wavefunction extrapolation:
    Improved wavefunction reuse through dual PAW basis 

Eigensolver
   Davidson(niter=2, smin=None, normalize=True) 

Densities:
  Coarse grid: 12*12*12 grid
  Fine grid: 24*24*24 grid
  Total Charge: 0.000000 

Density mixing:
  Method: separate
  Backend: pulay
  Linear mixing parameter: 0.05
  Mixing with 5 old densities
  Damping of long wave oscillations: 50 

Hamiltonian:
  XC and Coulomb potentials evaluated on a 24*24*24 grid
  Using the LDA Exchange-Correlation functional
 

Memory estimate:
  Process memory now: 115.09 MiB
  Calculator: 5.73 MiB
    Density: 0.68 MiB
      Arrays: 0.34 MiB
      Localized functions: 0.21 MiB
      Mixer: 0.13 MiB
    Hamiltonian: 0.23 MiB
      Arrays: 0.22 MiB
      XC: 0.00 MiB
      Poisson: 0.00 MiB
      vbar: 0.00 MiB
    Wavefunctions: 4.82 MiB
      Arrays psit_nG: 1.62 MiB
      Eigensolver: 0.03 MiB
      Projections: 0.10 MiB
      Projectors: 2.60 MiB
      PW-descriptor: 0.47 MiB

Total number of cores used: 10
Parallelization over k-points: 10

Number of atoms: 1
Number of atomic orbitals: 4
Number of bands in calculation: 4
Bands to converge: occupied states only
Number of valence electrons: 3

... initialized

Initializing position-dependent things.

Density initialized from atomic densities
Creating initial wave functions:
  4 bands from LCAO basis set

                
                
                
       Al       
                
                
                
                

Positions:
   0 Al     0.000000    0.000000    0.000000    ( 0.0000,  0.0000,  0.0000)

Unit cell:
           periodic     x           y           z      points  spacing
  1. axis:    yes    0.000000    2.021500    2.021500    12     0.1945
  2. axis:    yes    2.021500    0.000000    2.021500    12     0.1945
  3. axis:    yes    2.021500    2.021500    0.000000    12     0.1945

  Lengths:   2.858833   2.858833   2.858833
  Angles:   60.000000  60.000000  60.000000

Effective grid spacing dv^(1/3) = 0.2122

                     log10-error:    total        iterations:
           time      wfs    density  energy       fermi  poisson
iter:   1  08:56:08  +1.20   +inf    -4.174535    2             
iter:   2  08:56:09  -2.65  -0.95    -4.175417    2             
iter:   3  08:56:09  -2.74  -0.96    -4.172497    2             
iter:   4  08:56:10  -3.97  -1.21    -4.170524    2             
iter:   5  08:56:10  -5.41  -2.16    -4.170824    2             
iter:   6  08:56:11  -5.05  -2.01    -4.170595    2             
iter:   7  08:56:12  -6.67  -2.69    -4.170590    2             
iter:   8  08:56:12  -8.22  -3.75    -4.170590    2             
iter:   9  08:56:13  -9.61  -4.06    -4.170590    1             

Converged after 9 iterations.

Dipole moment: (0.000000, 0.000000, 0.000000) |e|*Ang

Energy contributions relative to reference atoms: (reference = -6578.421307)

Kinetic:         +4.049547
Potential:       -2.133787
External:        +0.000000
XC:              -6.074038
Entropy (-ST):   -0.013577
Local:           -0.005524
--------------------------
Free energy:     -4.177378
Extrapolated:    -4.170590

Fermi level: 6.95016

Showing only first 2 kpts
 Kpt  Band  Eigenvalues  Occupancy
  0     0     -4.10868    0.00087
  0     1     18.74992    0.00000
  0     2     19.07368    0.00000

  1     0     -4.14008    0.00029
  1     1     19.23286    0.00000
  1     2     19.80064    0.00000


No gap
Timing:                              incl.     excl.
-----------------------------------------------------------
Hamiltonian:                         0.024     0.000   0.0% |
 Atomic:                             0.020     0.020   0.2% |
  XC Correction:                     0.000     0.000   0.0% |
 Calculate atomic Hamiltonians:      0.000     0.000   0.0% |
 Communicate:                        0.000     0.000   0.0% |
 Initialize Hamiltonian:             0.000     0.000   0.0% |
 Poisson:                            0.000     0.000   0.0% |
 XC 3D grid:                         0.003     0.003   0.0% |
LCAO initialization:                 1.289     0.022   0.2% |
 LCAO eigensolver:                   0.303     0.005   0.1% |
  Calculate projections:             0.003     0.003   0.0% |
  DenseAtomicCorrection:             0.009     0.009   0.1% |
  Distribute overlap matrix:         0.002     0.002   0.0% |
  Orbital Layouts:                   0.009     0.009   0.1% |
  Potential matrix:                  0.030     0.030   0.3% |
  Sum over cells:                    0.245     0.245   2.7% ||
 LCAO to grid:                       0.512     0.512   5.7% |-|
 Set positions (LCAO WFS):           0.453     0.061   0.7% |
  Basic WFS set positions:           0.002     0.002   0.0% |
  Basis functions set positions:     0.000     0.000   0.0% |
  P tci:                             0.109     0.109   1.2% |
  ST tci:                            0.259     0.259   2.9% ||
  mktci:                             0.021     0.021   0.2% |
PWDescriptor:                        0.012     0.012   0.1% |
SCF-cycle:                           5.820     0.627   7.0% |--|
 Davidson:                           4.787     1.379  15.3% |-----|
  Apply H:                           0.289     0.240   2.7% ||
   HMM T:                            0.049     0.049   0.5% |
  Subspace diag:                     0.798     0.089   1.0% |
   calc_h_matrix:                    0.492     0.199   2.2% ||
    Apply H:                         0.293     0.241   2.7% ||
     HMM T:                          0.052     0.052   0.6% |
   diagonalize:                      0.130     0.130   1.4% ||
   rotate_psi:                       0.087     0.087   1.0% |
  calc. matrices:                    1.881     1.306  14.5% |-----|
   Apply H:                          0.575     0.474   5.3% |-|
    HMM T:                           0.101     0.101   1.1% |
  diagonalize:                       0.328     0.328   3.6% ||
  rotate_psi:                        0.111     0.111   1.2% |
 Density:                            0.189     0.000   0.0% |
  Atomic density matrices:           0.027     0.027   0.3% |
  Mix:                               0.011     0.011   0.1% |
  Multipole moments:                 0.001     0.001   0.0% |
  Pseudo density:                    0.151     0.097   1.1% |
   Symmetrize density:               0.053     0.053   0.6% |
 Hamiltonian:                        0.152     0.002   0.0% |
  Atomic:                            0.124     0.124   1.4% ||
   XC Correction:                    0.000     0.000   0.0% |
  Calculate atomic Hamiltonians:     0.003     0.003   0.0% |
  Communicate:                       0.000     0.000   0.0% |
  Poisson:                           0.001     0.001   0.0% |
  XC 3D grid:                        0.021     0.021   0.2% |
 Orthonormalize:                     0.064     0.010   0.1% |
  calc_s_matrix:                     0.016     0.016   0.2% |
  inverse-cholesky:                  0.019     0.019   0.2% |
  projections:                       0.016     0.016   0.2% |
  rotate_psi_s:                      0.004     0.004   0.0% |
Set symmetry:                        1.046     1.046  11.6% |----|
Other:                               0.818     0.818   9.1% |---|
-----------------------------------------------------------
Total:                                         9.008 100.0%

Memory usage: 115.70 MiB
Date: Mon Mar  2 08:56:13 2020
