
  ___ ___ ___ _ _ _  
 |   |   |_  | | | | 
 | | | | | . | | | | 
 |__ |  _|___|_____|  19.8.1
 |___|_|             

User:   ericlin@hebbe04-1
Date:   Mon Mar  2 08:43:13 2020
Arch:   x86_64
Pid:    19531
Python: 3.7.2
gpaw:   /apps/Hebbe7/software/MPI/intel/2019.1.144-GCC-8.2.0-2.31.1/impi/2018.4.274/GPAW/19.8.1-Python-3.7.2/lib/python3.7/site-packages/gpaw
_gpaw:  /apps/Hebbe7/software/MPI/intel/2019.1.144-GCC-8.2.0-2.31.1/impi/2018.4.274/GPAW/19.8.1-Python-3.7.2/bin/
        gpaw-python
ase:    /apps/Hebbe7/software/MPI/intel/2019.1.144-GCC-8.2.0-2.31.1/impi/2018.4.274/ASE/3.18.0-Python-3.7.2/lib/python3.7/site-packages/ase (version 3.18.0)
numpy:  /apps/Hebbe7/software/MPI/intel/2019.1.144-GCC-8.2.0-2.31.1/impi/2018.4.274/SciPy-bundle/2019.03/lib/python3.7/site-packages/numpy (version 1.16.2)
scipy:  /apps/Hebbe7/software/MPI/intel/2019.1.144-GCC-8.2.0-2.31.1/impi/2018.4.274/SciPy-bundle/2019.03/lib/python3.7/site-packages/scipy (version 1.2.1)
libxc:  4.3.4
units:  Angstrom and eV
cores:  1

Input parameters:
  kpts: [26.4 26.4 26.4]
  mode: {ecut: 300.0,
         gammacentered: False,
         name: pw}

System changes: positions, numbers, cell, pbc, initial_charges, initial_magmoms 

Initialize ...

Al-setup:
  name: Aluminium
  id: 2e6447feaea722efcff26bf034b25f30
  Z: 13
  valence: 3
  core: 10
  charge: 0.0
  file: /apps/Common/Core/GPAW-setups/0.9.20000/Al.LDA.gz
  compensation charges: gauss, rc=0.34, lmax=2
  cutoffs: 1.91(filt), 2.36(core),
  valence states:
                energy  radius
    3s(2.00)    -7.830   1.085
    3p(1.00)    -2.783   1.085
    *s          19.382   1.085
    *p          24.428   1.085
    *d           0.000   1.085

  Using partial waves for Al as LCAO basis

Reference energy: -6578.421307

Spin-paired calculation

Occupation numbers:
  Fermi-Dirac: width=0.1000 eV

Convergence criteria:
  Maximum total energy change: 0.0005 eV / electron
  Maximum integral of absolute density change: 0.0001 electrons
  Maximum integral of absolute eigenstate change: 4e-08 eV^2
  Maximum number of iterations: 333

Symmetries present (total): 48

  ( 1  0  0)  ( 1  0  0)  ( 1  0  0)  ( 1  0  0)  ( 1  0 -1)  ( 1  0 -1)
  ( 1  0 -1)  ( 1 -1  0)  ( 0  1  0)  ( 0  0  1)  ( 1  0  0)  ( 1 -1  0)
  ( 1 -1  0)  ( 1  0 -1)  ( 0  0  1)  ( 0  1  0)  ( 1 -1  0)  ( 1  0  0)

  ( 1  0 -1)  ( 1  0 -1)  ( 1 -1  0)  ( 1 -1  0)  ( 1 -1  0)  ( 1 -1  0)
  ( 0  1 -1)  ( 0  0 -1)  ( 1  0  0)  ( 1  0 -1)  ( 0 -1  1)  ( 0 -1  0)
  ( 0  0 -1)  ( 0  1 -1)  ( 1  0 -1)  ( 1  0  0)  ( 0 -1  0)  ( 0 -1  1)

  ( 0  1  0)  ( 0  1  0)  ( 0  1  0)  ( 0  1  0)  ( 0  1 -1)  ( 0  1 -1)
  ( 1  0  0)  ( 0  1 -1)  ( 0  0  1)  (-1  1  0)  ( 1  0 -1)  ( 0  1  0)
  ( 0  0  1)  (-1  1  0)  ( 1  0  0)  ( 0  1 -1)  ( 0  0 -1)  (-1  1  0)

  ( 0  1 -1)  ( 0  1 -1)  ( 0  0  1)  ( 0  0  1)  ( 0  0  1)  ( 0  0  1)
  ( 0  0 -1)  (-1  1  0)  ( 1  0  0)  ( 0  1  0)  ( 0 -1  1)  (-1  0  1)
  ( 1  0 -1)  ( 0  1  0)  ( 0  1  0)  ( 1  0  0)  (-1  0  1)  ( 0 -1  1)

  ( 0  0 -1)  ( 0  0 -1)  ( 0  0 -1)  ( 0  0 -1)  ( 0 -1  1)  ( 0 -1  1)
  ( 1  0 -1)  ( 0  1 -1)  ( 0 -1  0)  (-1  0  0)  ( 1 -1  0)  ( 0  0  1)
  ( 0  1 -1)  ( 1  0 -1)  (-1  0  0)  ( 0 -1  0)  ( 0 -1  0)  (-1  0  1)

  ( 0 -1  1)  ( 0 -1  1)  ( 0 -1  0)  ( 0 -1  0)  ( 0 -1  0)  ( 0 -1  0)
  ( 0 -1  0)  (-1  0  1)  ( 1 -1  0)  ( 0  0 -1)  ( 0 -1  1)  (-1  0  0)
  ( 1 -1  0)  ( 0  0  1)  ( 0 -1  1)  (-1  0  0)  ( 1 -1  0)  ( 0  0 -1)

  (-1  1  0)  (-1  1  0)  (-1  1  0)  (-1  1  0)  (-1  0  1)  (-1  0  1)
  ( 0  1  0)  ( 0  1 -1)  (-1  0  1)  (-1  0  0)  ( 0  0  1)  ( 0 -1  1)
  ( 0  1 -1)  ( 0  1  0)  (-1  0  0)  (-1  0  1)  ( 0 -1  1)  ( 0  0  1)

  (-1  0  1)  (-1  0  1)  (-1  0  0)  (-1  0  0)  (-1  0  0)  (-1  0  0)
  (-1  1  0)  (-1  0  0)  ( 0  0 -1)  ( 0 -1  0)  (-1  1  0)  (-1  0  1)
  (-1  0  0)  (-1  1  0)  ( 0 -1  0)  ( 0  0 -1)  (-1  0  1)  (-1  1  0)
Note: your k-points are not as symmetric as your crystal!

17576 k-points: 26 x 26 x 26 Monkhorst-Pack grid
1638 k-points in the irreducible part of the Brillouin zone
       k-points in crystal coordinates                weights
   0:     0.01923077    0.01923077   -0.01923077          6/17576
   1:     0.01923077    0.01923077    0.01923077          2/17576
   2:     0.05769231   -0.01923077   -0.01923077          6/17576
   3:     0.05769231    0.01923077   -0.05769231         12/17576
   4:     0.05769231    0.01923077   -0.01923077         12/17576
   5:     0.05769231    0.01923077    0.01923077          6/17576
   6:     0.05769231    0.05769231   -0.05769231          6/17576
   7:     0.05769231    0.05769231   -0.01923077          6/17576
   8:     0.05769231    0.05769231    0.01923077          6/17576
   9:     0.05769231    0.05769231    0.05769231          2/17576
          ...
1637:     0.48076923    0.48076923    0.48076923          2/17576

Wave functions: Plane wave expansion
  Cutoff energy: 300.000 eV
  Number of coefficients (min, max): 175, 204
  Pulay-stress correction: 0.000000 eV/Ang^3 (de/decut=0.000000)
  Using FFTW library
  ScaLapack parameters: grid=1x1, blocksize=None
  Wavefunction extrapolation:
    Improved wavefunction reuse through dual PAW basis 

Eigensolver
   Davidson(niter=2, smin=None, normalize=True) 

Densities:
  Coarse grid: 12*12*12 grid
  Fine grid: 24*24*24 grid
  Total Charge: 0.000000 

Density mixing:
  Method: separate
  Backend: pulay
  Linear mixing parameter: 0.05
  Mixing with 5 old densities
  Damping of long wave oscillations: 50 

Hamiltonian:
  XC and Coulomb potentials evaluated on a 24*24*24 grid
  Using the LDA Exchange-Correlation functional
 

Memory estimate:
  Process memory now: 150.92 MiB
  Calculator: 61.86 MiB
    Density: 0.68 MiB
      Arrays: 0.34 MiB
      Localized functions: 0.21 MiB
      Mixer: 0.13 MiB
    Hamiltonian: 0.23 MiB
      Arrays: 0.22 MiB
      XC: 0.00 MiB
      Poisson: 0.00 MiB
      vbar: 0.00 MiB
    Wavefunctions: 60.95 MiB
      Arrays psit_nG: 20.40 MiB
      Eigensolver: 0.03 MiB
      Projections: 1.30 MiB
      Projectors: 34.06 MiB
      PW-descriptor: 5.16 MiB

Total number of cores used: 1

Number of atoms: 1
Number of atomic orbitals: 4
Number of bands in calculation: 4
Bands to converge: occupied states only
Number of valence electrons: 3

... initialized

Initializing position-dependent things.

Density initialized from atomic densities
Creating initial wave functions:
  4 bands from LCAO basis set

                
                
                
       Al       
                
                
                
                

Positions:
   0 Al     0.000000    0.000000    0.000000    ( 0.0000,  0.0000,  0.0000)

Unit cell:
           periodic     x           y           z      points  spacing
  1. axis:    yes    0.000000    2.021500    2.021500    12     0.1945
  2. axis:    yes    2.021500    0.000000    2.021500    12     0.1945
  3. axis:    yes    2.021500    2.021500    0.000000    12     0.1945

  Lengths:   2.858833   2.858833   2.858833
  Angles:   60.000000  60.000000  60.000000

Effective grid spacing dv^(1/3) = 0.2122

                     log10-error:    total        iterations:
           time      wfs    density  energy       fermi  poisson
iter:   1  08:43:37  +1.20   +inf    -4.174713    2             
iter:   2  08:43:44  -2.65  -0.95    -4.175597    2             
iter:   3  08:43:51  -2.74  -0.96    -4.172685    2             
iter:   4  08:43:57  -3.97  -1.21    -4.170708    2             
iter:   5  08:44:04  -5.41  -2.16    -4.171010    2             
iter:   6  08:44:11  -5.05  -2.01    -4.170779    2             
iter:   7  08:44:18  -6.67  -2.69    -4.170773    2             
iter:   8  08:44:25  -8.22  -3.75    -4.170773    1             
iter:   9  08:44:31  -9.62  -4.06    -4.170773    1             

Converged after 9 iterations.

Dipole moment: (0.000000, 0.000000, 0.000000) |e|*Ang

Energy contributions relative to reference atoms: (reference = -6578.421307)

Kinetic:         +4.050552
Potential:       -2.134977
External:        +0.000000
XC:              -6.074114
Entropy (-ST):   -0.013419
Local:           -0.005525
--------------------------
Free energy:     -4.177483
Extrapolated:    -4.170773

Fermi level: 6.94939

Showing only first 2 kpts
 Kpt  Band  Eigenvalues  Occupancy
  0     0     -4.11506    0.00068
  0     1     18.84314    0.00000
  0     2     19.13135    0.00000

  1     0     -4.14181    0.00023
  1     1     19.28973    0.00000
  1     2     19.86751    0.00000


No gap
Timing:                              incl.     excl.
-----------------------------------------------------------
Hamiltonian:                         0.018     0.000   0.0% |
 Atomic:                             0.014     0.000   0.0% |
  XC Correction:                     0.014     0.014   0.0% |
 Calculate atomic Hamiltonians:      0.000     0.000   0.0% |
 Communicate:                        0.000     0.000   0.0% |
 Initialize Hamiltonian:             0.000     0.000   0.0% |
 Poisson:                            0.000     0.000   0.0% |
 XC 3D grid:                         0.002     0.002   0.0% |
LCAO initialization:                13.868     0.038   0.0% |
 LCAO eigensolver:                   3.357     0.059   0.1% |
  Calculate projections:             0.030     0.030   0.0% |
  DenseAtomicCorrection:             0.116     0.116   0.1% |
  Distribute overlap matrix:         0.029     0.029   0.0% |
  Orbital Layouts:                   0.110     0.110   0.1% |
  Potential matrix:                  0.029     0.029   0.0% |
  Sum over cells:                    2.985     2.985   3.8% |-|
 LCAO to grid:                       6.037     6.037   7.7% |--|
 Set positions (LCAO WFS):           4.435     0.582   0.7% |
  Basic WFS set positions:           0.002     0.002   0.0% |
  Basis functions set positions:     0.000     0.000   0.0% |
  P tci:                             1.160     1.160   1.5% ||
  ST tci:                            2.670     2.670   3.4% ||
  mktci:                             0.021     0.021   0.0% |
PWDescriptor:                        0.115     0.115   0.1% |
SCF-cycle:                          61.992     1.595   2.0% ||
 Davidson:                          58.086    17.000  21.6% |--------|
  Apply H:                           3.508     2.899   3.7% ||
   HMM T:                            0.609     0.609   0.8% |
  Subspace diag:                     9.554     1.081   1.4% ||
   calc_h_matrix:                    5.904     2.358   3.0% ||
    Apply H:                         3.547     2.898   3.7% ||
     HMM T:                          0.648     0.648   0.8% |
   diagonalize:                      1.532     1.532   1.9% ||
   rotate_psi:                       1.037     1.037   1.3% ||
  calc. matrices:                   22.781    15.816  20.1% |-------|
   Apply H:                          6.965     5.725   7.3% |--|
    HMM T:                           1.241     1.241   1.6% ||
  diagonalize:                       3.892     3.892   4.9% |-|
  rotate_psi:                        1.351     1.351   1.7% ||
 Density:                            1.393     0.000   0.0% |
  Atomic density matrices:           0.203     0.203   0.3% |
  Mix:                               0.010     0.010   0.0% |
  Multipole moments:                 0.001     0.001   0.0% |
  Pseudo density:                    1.179     1.132   1.4% ||
   Symmetrize density:               0.047     0.047   0.1% |
 Hamiltonian:                        0.141     0.002   0.0% |
  Atomic:                            0.116     0.004   0.0% |
   XC Correction:                    0.112     0.112   0.1% |
  Calculate atomic Hamiltonians:     0.003     0.003   0.0% |
  Communicate:                       0.000     0.000   0.0% |
  Poisson:                           0.001     0.001   0.0% |
  XC 3D grid:                        0.020     0.020   0.0% |
 Orthonormalize:                     0.776     0.122   0.2% |
  calc_s_matrix:                     0.198     0.198   0.3% |
  inverse-cholesky:                  0.221     0.221   0.3% |
  projections:                       0.189     0.189   0.2% |
  rotate_psi_s:                      0.045     0.045   0.1% |
Set symmetry:                        1.152     1.152   1.5% ||
Other:                               1.687     1.687   2.1% ||
-----------------------------------------------------------
Total:                                        78.832 100.0%

Memory usage: 190.52 MiB
Date: Mon Mar  2 08:44:31 2020
