
  ___ ___ ___ _ _ _  
 |   |   |_  | | | | 
 | | | | | . | | | | 
 |__ |  _|___|_____|  19.8.1
 |___|_|             

User:   ericlin@hebbe17-7
Date:   Thu Mar  5 12:35:09 2020
Arch:   x86_64
Pid:    1364
Python: 3.7.2
gpaw:   /apps/Hebbe7/software/MPI/intel/2019.1.144-GCC-8.2.0-2.31.1/impi/2018.4.274/GPAW/19.8.1-Python-3.7.2/lib/python3.7/site-packages/gpaw
_gpaw:  /apps/Hebbe7/software/MPI/intel/2019.1.144-GCC-8.2.0-2.31.1/impi/2018.4.274/GPAW/19.8.1-Python-3.7.2/bin/
        gpaw-python
ase:    /apps/Hebbe7/software/MPI/intel/2019.1.144-GCC-8.2.0-2.31.1/impi/2018.4.274/ASE/3.18.0-Python-3.7.2/lib/python3.7/site-packages/ase (version 3.18.0)
numpy:  /apps/Hebbe7/software/MPI/intel/2019.1.144-GCC-8.2.0-2.31.1/impi/2018.4.274/SciPy-bundle/2019.03/lib/python3.7/site-packages/numpy (version 1.16.2)
scipy:  /apps/Hebbe7/software/MPI/intel/2019.1.144-GCC-8.2.0-2.31.1/impi/2018.4.274/SciPy-bundle/2019.03/lib/python3.7/site-packages/scipy (version 1.2.1)
libxc:  4.3.4
units:  Angstrom and eV
cores:  1

Input parameters:
  kpts: [28 28 28]
  mode: {ecut: 300.0,
         gammacentered: False,
         name: pw}

System changes: positions, numbers, cell, pbc, initial_charges, initial_magmoms 

Initialize ...

Al-setup:
  name: Aluminium
  id: 2e6447feaea722efcff26bf034b25f30
  Z: 13
  valence: 3
  core: 10
  charge: 0.0
  file: /apps/Common/Core/GPAW-setups/0.9.20000/Al.LDA.gz
  compensation charges: gauss, rc=0.34, lmax=2
  cutoffs: 1.91(filt), 2.36(core),
  valence states:
                energy  radius
    3s(2.00)    -7.830   1.085
    3p(1.00)    -2.783   1.085
    *s          19.382   1.085
    *p          24.428   1.085
    *d           0.000   1.085

  Using partial waves for Al as LCAO basis

Reference energy: -6578.421307

Spin-paired calculation

Occupation numbers:
  Fermi-Dirac: width=0.1000 eV

Convergence criteria:
  Maximum total energy change: 0.0005 eV / electron
  Maximum integral of absolute density change: 0.0001 electrons
  Maximum integral of absolute eigenstate change: 4e-08 eV^2
  Maximum number of iterations: 333

Symmetries present (total): 48

  ( 1  0  0)  ( 1  0  0)  ( 1  0  0)  ( 1  0  0)  ( 1  0 -1)  ( 1  0 -1)
  ( 1  0 -1)  ( 1 -1  0)  ( 0  1  0)  ( 0  0  1)  ( 1  0  0)  ( 1 -1  0)
  ( 1 -1  0)  ( 1  0 -1)  ( 0  0  1)  ( 0  1  0)  ( 1 -1  0)  ( 1  0  0)

  ( 1  0 -1)  ( 1  0 -1)  ( 1 -1  0)  ( 1 -1  0)  ( 1 -1  0)  ( 1 -1  0)
  ( 0  1 -1)  ( 0  0 -1)  ( 1  0  0)  ( 1  0 -1)  ( 0 -1  1)  ( 0 -1  0)
  ( 0  0 -1)  ( 0  1 -1)  ( 1  0 -1)  ( 1  0  0)  ( 0 -1  0)  ( 0 -1  1)

  ( 0  1  0)  ( 0  1  0)  ( 0  1  0)  ( 0  1  0)  ( 0  1 -1)  ( 0  1 -1)
  ( 1  0  0)  ( 0  1 -1)  ( 0  0  1)  (-1  1  0)  ( 1  0 -1)  ( 0  1  0)
  ( 0  0  1)  (-1  1  0)  ( 1  0  0)  ( 0  1 -1)  ( 0  0 -1)  (-1  1  0)

  ( 0  1 -1)  ( 0  1 -1)  ( 0  0  1)  ( 0  0  1)  ( 0  0  1)  ( 0  0  1)
  ( 0  0 -1)  (-1  1  0)  ( 1  0  0)  ( 0  1  0)  ( 0 -1  1)  (-1  0  1)
  ( 1  0 -1)  ( 0  1  0)  ( 0  1  0)  ( 1  0  0)  (-1  0  1)  ( 0 -1  1)

  ( 0  0 -1)  ( 0  0 -1)  ( 0  0 -1)  ( 0  0 -1)  ( 0 -1  1)  ( 0 -1  1)
  ( 1  0 -1)  ( 0  1 -1)  ( 0 -1  0)  (-1  0  0)  ( 1 -1  0)  ( 0  0  1)
  ( 0  1 -1)  ( 1  0 -1)  (-1  0  0)  ( 0 -1  0)  ( 0 -1  0)  (-1  0  1)

  ( 0 -1  1)  ( 0 -1  1)  ( 0 -1  0)  ( 0 -1  0)  ( 0 -1  0)  ( 0 -1  0)
  ( 0 -1  0)  (-1  0  1)  ( 1 -1  0)  ( 0  0 -1)  ( 0 -1  1)  (-1  0  0)
  ( 1 -1  0)  ( 0  0  1)  ( 0 -1  1)  (-1  0  0)  ( 1 -1  0)  ( 0  0 -1)

  (-1  1  0)  (-1  1  0)  (-1  1  0)  (-1  1  0)  (-1  0  1)  (-1  0  1)
  ( 0  1  0)  ( 0  1 -1)  (-1  0  1)  (-1  0  0)  ( 0  0  1)  ( 0 -1  1)
  ( 0  1 -1)  ( 0  1  0)  (-1  0  0)  (-1  0  1)  ( 0 -1  1)  ( 0  0  1)

  (-1  0  1)  (-1  0  1)  (-1  0  0)  (-1  0  0)  (-1  0  0)  (-1  0  0)
  (-1  1  0)  (-1  0  0)  ( 0  0 -1)  ( 0 -1  0)  (-1  1  0)  (-1  0  1)
  (-1  0  0)  (-1  1  0)  ( 0 -1  0)  ( 0  0 -1)  (-1  0  1)  (-1  1  0)
Note: your k-points are not as symmetric as your crystal!

21952 k-points: 28 x 28 x 28 Monkhorst-Pack grid
2030 k-points in the irreducible part of the Brillouin zone
       k-points in crystal coordinates                weights
   0:     0.01785714    0.01785714   -0.01785714          6/21952
   1:     0.01785714    0.01785714    0.01785714          2/21952
   2:     0.05357143   -0.01785714   -0.01785714          6/21952
   3:     0.05357143    0.01785714   -0.05357143         12/21952
   4:     0.05357143    0.01785714   -0.01785714         12/21952
   5:     0.05357143    0.01785714    0.01785714          6/21952
   6:     0.05357143    0.05357143   -0.05357143          6/21952
   7:     0.05357143    0.05357143   -0.01785714          6/21952
   8:     0.05357143    0.05357143    0.01785714          6/21952
   9:     0.05357143    0.05357143    0.05357143          2/21952
          ...
2029:     0.48214286    0.48214286    0.48214286          2/21952

Wave functions: Plane wave expansion
  Cutoff energy: 300.000 eV
  Number of coefficients (min, max): 175, 203
  Pulay-stress correction: 0.000000 eV/Ang^3 (de/decut=0.000000)
  Using FFTW library
  ScaLapack parameters: grid=1x1, blocksize=None
  Wavefunction extrapolation:
    Improved wavefunction reuse through dual PAW basis 

Eigensolver
   Davidson(niter=2, smin=None, normalize=True) 

Densities:
  Coarse grid: 12*12*12 grid
  Fine grid: 24*24*24 grid
  Total Charge: 0.000000 

Density mixing:
  Method: separate
  Backend: pulay
  Linear mixing parameter: 0.05
  Mixing with 5 old densities
  Damping of long wave oscillations: 50 

Hamiltonian:
  XC and Coulomb potentials evaluated on a 24*24*24 grid
  Using the LDA Exchange-Correlation functional
 

Memory estimate:
  Process memory now: 151.30 MiB
  Calculator: 76.27 MiB
    Density: 0.68 MiB
      Arrays: 0.34 MiB
      Localized functions: 0.21 MiB
      Mixer: 0.13 MiB
    Hamiltonian: 0.23 MiB
      Arrays: 0.22 MiB
      XC: 0.00 MiB
      Poisson: 0.00 MiB
      vbar: 0.00 MiB
    Wavefunctions: 75.36 MiB
      Arrays psit_nG: 25.15 MiB
      Eigensolver: 0.03 MiB
      Projections: 1.61 MiB
      Projectors: 42.22 MiB
      PW-descriptor: 6.35 MiB

Total number of cores used: 1

Number of atoms: 1
Number of atomic orbitals: 4
Number of bands in calculation: 4
Bands to converge: occupied states only
Number of valence electrons: 3

... initialized

Initializing position-dependent things.

Density initialized from atomic densities
Creating initial wave functions:
  4 bands from LCAO basis set

                
                
                
       Al       
                
                
                
                

Positions:
   0 Al     0.000000    0.000000    0.000000    ( 0.0000,  0.0000,  0.0000)

Unit cell:
           periodic     x           y           z      points  spacing
  1. axis:    yes    0.000000    2.021500    2.021500    12     0.1945
  2. axis:    yes    2.021500    0.000000    2.021500    12     0.1945
  3. axis:    yes    2.021500    2.021500    0.000000    12     0.1945

  Lengths:   2.858833   2.858833   2.858833
  Angles:   60.000000  60.000000  60.000000

Effective grid spacing dv^(1/3) = 0.2122

                     log10-error:    total        iterations:
           time      wfs    density  energy       fermi  poisson
iter:   1  12:35:42  +1.20   +inf    -4.174768    2             
iter:   2  12:35:51  -2.65  -0.95    -4.175650    2             
iter:   3  12:36:00  -2.74  -0.96    -4.172737    2             
iter:   4  12:36:10  -3.97  -1.21    -4.170761    2             
iter:   5  12:36:19  -5.41  -2.16    -4.171063    2             
iter:   6  12:36:28  -5.05  -2.01    -4.170832    2             
iter:   7  12:36:37  -6.67  -2.69    -4.170827    2             
iter:   8  12:36:46  -8.22  -3.75    -4.170827    2             
iter:   9  12:36:55  -9.61  -4.06    -4.170827    1             

Converged after 9 iterations.

Dipole moment: (-0.000000, -0.000000, 0.000000) |e|*Ang

Energy contributions relative to reference atoms: (reference = -6578.421307)

Kinetic:         +4.049456
Potential:       -2.134020
External:        +0.000000
XC:              -6.074064
Entropy (-ST):   -0.013349
Local:           -0.005524
--------------------------
Free energy:     -4.177501
Extrapolated:    -4.170827

Fermi level: 6.95071

Showing only first 2 kpts
 Kpt  Band  Eigenvalues  Occupancy
  0     0     -4.12014    0.00055
  0     1     18.92166    0.00000
  0     2     19.18076    0.00000

  1     0     -4.14320    0.00018
  1     1     19.34158    0.00000
  1     2     19.93036    0.00000


No gap
Timing:                              incl.     excl.
-----------------------------------------------------------
Hamiltonian:                         0.019     0.000   0.0% |
 Atomic:                             0.015     0.000   0.0% |
  XC Correction:                     0.015     0.015   0.0% |
 Calculate atomic Hamiltonians:      0.000     0.000   0.0% |
 Communicate:                        0.000     0.000   0.0% |
 Initialize Hamiltonian:             0.000     0.000   0.0% |
 Poisson:                            0.000     0.000   0.0% |
 XC 3D grid:                         0.003     0.003   0.0% |
LCAO initialization:                18.941     0.050   0.0% |
 LCAO eigensolver:                   4.743     0.079   0.1% |
  Calculate projections:             0.040     0.040   0.0% |
  DenseAtomicCorrection:             0.145     0.145   0.1% |
  Distribute overlap matrix:         0.038     0.038   0.0% |
  Orbital Layouts:                   0.147     0.147   0.1% |
  Potential matrix:                  0.028     0.028   0.0% |
  Sum over cells:                    4.266     4.266   4.0% |-|
 LCAO to grid:                       8.044     8.044   7.6% |--|
 Set positions (LCAO WFS):           6.104     0.810   0.8% |
  Basic WFS set positions:           0.002     0.002   0.0% |
  Basis functions set positions:     0.000     0.000   0.0% |
  P tci:                             1.574     1.574   1.5% ||
  ST tci:                            3.696     3.696   3.5% ||
  mktci:                             0.022     0.022   0.0% |
PWDescriptor:                        0.160     0.160   0.2% |
SCF-cycle:                          83.053     2.313   2.2% ||
 Davidson:                          77.702    22.333  21.1% |-------|
  Apply H:                           4.760     3.939   3.7% ||
   HMM T:                            0.821     0.821   0.8% |
  Subspace diag:                    12.887     1.433   1.4% ||
   calc_h_matrix:                    7.985     3.156   3.0% ||
    Apply H:                         4.829     3.949   3.7% ||
     HMM T:                          0.880     0.880   0.8% |
   diagonalize:                      2.078     2.078   2.0% ||
   rotate_psi:                       1.391     1.391   1.3% ||
  calc. matrices:                   30.712    21.216  20.0% |-------|
   Apply H:                          9.496     7.821   7.4% |--|
    HMM T:                           1.675     1.675   1.6% ||
  diagonalize:                       5.208     5.208   4.9% |-|
  rotate_psi:                        1.801     1.801   1.7% ||
 Density:                            1.860     0.000   0.0% |
  Atomic density matrices:           0.288     0.288   0.3% |
  Mix:                               0.013     0.013   0.0% |
  Multipole moments:                 0.001     0.001   0.0% |
  Pseudo density:                    1.558     1.507   1.4% ||
   Symmetrize density:               0.051     0.051   0.0% |
 Hamiltonian:                        0.151     0.002   0.0% |
  Atomic:                            0.124     0.004   0.0% |
   XC Correction:                    0.120     0.120   0.1% |
  Calculate atomic Hamiltonians:     0.003     0.003   0.0% |
  Communicate:                       0.000     0.000   0.0% |
  Poisson:                           0.001     0.001   0.0% |
  XC 3D grid:                        0.021     0.021   0.0% |
 Orthonormalize:                     1.027     0.157   0.1% |
  calc_s_matrix:                     0.263     0.263   0.2% |
  inverse-cholesky:                  0.293     0.293   0.3% |
  projections:                       0.254     0.254   0.2% |
  rotate_psi_s:                      0.059     0.059   0.1% |
Set symmetry:                        1.553     1.553   1.5% ||
Other:                               2.195     2.195   2.1% ||
-----------------------------------------------------------
Total:                                       105.922 100.0%

Memory usage: 187.34 MiB
Date: Thu Mar  5 12:36:55 2020
