
  ___ ___ ___ _ _ _  
 |   |   |_  | | | | 
 | | | | | . | | | | 
 |__ |  _|___|_____|  19.8.1
 |___|_|             

User:   ericlin@hebbe03-7
Date:   Thu Mar  5 03:22:50 2020
Arch:   x86_64
Pid:    4714
Python: 3.7.2
gpaw:   /apps/Hebbe7/software/MPI/intel/2019.1.144-GCC-8.2.0-2.31.1/impi/2018.4.274/GPAW/19.8.1-Python-3.7.2/lib/python3.7/site-packages/gpaw
_gpaw:  /apps/Hebbe7/software/MPI/intel/2019.1.144-GCC-8.2.0-2.31.1/impi/2018.4.274/GPAW/19.8.1-Python-3.7.2/bin/
        gpaw-python
ase:    /apps/Hebbe7/software/MPI/intel/2019.1.144-GCC-8.2.0-2.31.1/impi/2018.4.274/ASE/3.18.0-Python-3.7.2/lib/python3.7/site-packages/ase (version 3.18.0)
numpy:  /apps/Hebbe7/software/MPI/intel/2019.1.144-GCC-8.2.0-2.31.1/impi/2018.4.274/SciPy-bundle/2019.03/lib/python3.7/site-packages/numpy (version 1.16.2)
scipy:  /apps/Hebbe7/software/MPI/intel/2019.1.144-GCC-8.2.0-2.31.1/impi/2018.4.274/SciPy-bundle/2019.03/lib/python3.7/site-packages/scipy (version 1.2.1)
libxc:  4.3.4
units:  Angstrom and eV
cores:  1

Input parameters:
  kpts: [28 28 28]
  mode: {ecut: 300.0,
         gammacentered: False,
         name: pw}

System changes: positions, numbers, cell, pbc, initial_charges, initial_magmoms 

Initialize ...

Al-setup:
  name: Aluminium
  id: 2e6447feaea722efcff26bf034b25f30
  Z: 13
  valence: 3
  core: 10
  charge: 0.0
  file: /apps/Common/Core/GPAW-setups/0.9.20000/Al.LDA.gz
  compensation charges: gauss, rc=0.34, lmax=2
  cutoffs: 1.91(filt), 2.36(core),
  valence states:
                energy  radius
    3s(2.00)    -7.830   1.085
    3p(1.00)    -2.783   1.085
    *s          19.382   1.085
    *p          24.428   1.085
    *d           0.000   1.085

  Using partial waves for Al as LCAO basis

Reference energy: -6578.421307

Spin-paired calculation

Occupation numbers:
  Fermi-Dirac: width=0.1000 eV

Convergence criteria:
  Maximum total energy change: 0.0005 eV / electron
  Maximum integral of absolute density change: 0.0001 electrons
  Maximum integral of absolute eigenstate change: 4e-08 eV^2
  Maximum number of iterations: 333

Symmetries present (total): 48

  ( 1  0  0)  ( 1  0  0)  ( 1  0  0)  ( 1  0  0)  ( 1  0 -1)  ( 1  0 -1)
  ( 1  0 -1)  ( 1 -1  0)  ( 0  1  0)  ( 0  0  1)  ( 1  0  0)  ( 1 -1  0)
  ( 1 -1  0)  ( 1  0 -1)  ( 0  0  1)  ( 0  1  0)  ( 1 -1  0)  ( 1  0  0)

  ( 1  0 -1)  ( 1  0 -1)  ( 1 -1  0)  ( 1 -1  0)  ( 1 -1  0)  ( 1 -1  0)
  ( 0  1 -1)  ( 0  0 -1)  ( 1  0  0)  ( 1  0 -1)  ( 0 -1  1)  ( 0 -1  0)
  ( 0  0 -1)  ( 0  1 -1)  ( 1  0 -1)  ( 1  0  0)  ( 0 -1  0)  ( 0 -1  1)

  ( 0  1  0)  ( 0  1  0)  ( 0  1  0)  ( 0  1  0)  ( 0  1 -1)  ( 0  1 -1)
  ( 1  0  0)  ( 0  1 -1)  ( 0  0  1)  (-1  1  0)  ( 1  0 -1)  ( 0  1  0)
  ( 0  0  1)  (-1  1  0)  ( 1  0  0)  ( 0  1 -1)  ( 0  0 -1)  (-1  1  0)

  ( 0  1 -1)  ( 0  1 -1)  ( 0  0  1)  ( 0  0  1)  ( 0  0  1)  ( 0  0  1)
  ( 0  0 -1)  (-1  1  0)  ( 1  0  0)  ( 0  1  0)  ( 0 -1  1)  (-1  0  1)
  ( 1  0 -1)  ( 0  1  0)  ( 0  1  0)  ( 1  0  0)  (-1  0  1)  ( 0 -1  1)

  ( 0  0 -1)  ( 0  0 -1)  ( 0  0 -1)  ( 0  0 -1)  ( 0 -1  1)  ( 0 -1  1)
  ( 1  0 -1)  ( 0  1 -1)  ( 0 -1  0)  (-1  0  0)  ( 1 -1  0)  ( 0  0  1)
  ( 0  1 -1)  ( 1  0 -1)  (-1  0  0)  ( 0 -1  0)  ( 0 -1  0)  (-1  0  1)

  ( 0 -1  1)  ( 0 -1  1)  ( 0 -1  0)  ( 0 -1  0)  ( 0 -1  0)  ( 0 -1  0)
  ( 0 -1  0)  (-1  0  1)  ( 1 -1  0)  ( 0  0 -1)  ( 0 -1  1)  (-1  0  0)
  ( 1 -1  0)  ( 0  0  1)  ( 0 -1  1)  (-1  0  0)  ( 1 -1  0)  ( 0  0 -1)

  (-1  1  0)  (-1  1  0)  (-1  1  0)  (-1  1  0)  (-1  0  1)  (-1  0  1)
  ( 0  1  0)  ( 0  1 -1)  (-1  0  1)  (-1  0  0)  ( 0  0  1)  ( 0 -1  1)
  ( 0  1 -1)  ( 0  1  0)  (-1  0  0)  (-1  0  1)  ( 0 -1  1)  ( 0  0  1)

  (-1  0  1)  (-1  0  1)  (-1  0  0)  (-1  0  0)  (-1  0  0)  (-1  0  0)
  (-1  1  0)  (-1  0  0)  ( 0  0 -1)  ( 0 -1  0)  (-1  1  0)  (-1  0  1)
  (-1  0  0)  (-1  1  0)  ( 0 -1  0)  ( 0  0 -1)  (-1  0  1)  (-1  1  0)
Note: your k-points are not as symmetric as your crystal!

21952 k-points: 28 x 28 x 28 Monkhorst-Pack grid
2030 k-points in the irreducible part of the Brillouin zone
       k-points in crystal coordinates                weights
   0:     0.01785714    0.01785714   -0.01785714          6/21952
   1:     0.01785714    0.01785714    0.01785714          2/21952
   2:     0.05357143   -0.01785714   -0.01785714          6/21952
   3:     0.05357143    0.01785714   -0.05357143         12/21952
   4:     0.05357143    0.01785714   -0.01785714         12/21952
   5:     0.05357143    0.01785714    0.01785714          6/21952
   6:     0.05357143    0.05357143   -0.05357143          6/21952
   7:     0.05357143    0.05357143   -0.01785714          6/21952
   8:     0.05357143    0.05357143    0.01785714          6/21952
   9:     0.05357143    0.05357143    0.05357143          2/21952
          ...
2029:     0.48214286    0.48214286    0.48214286          2/21952

Wave functions: Plane wave expansion
  Cutoff energy: 300.000 eV
  Number of coefficients (min, max): 175, 203
  Pulay-stress correction: 0.000000 eV/Ang^3 (de/decut=0.000000)
  Using FFTW library
  ScaLapack parameters: grid=1x1, blocksize=None
  Wavefunction extrapolation:
    Improved wavefunction reuse through dual PAW basis 

Eigensolver
   Davidson(niter=2, smin=None, normalize=True) 

Densities:
  Coarse grid: 12*12*12 grid
  Fine grid: 24*24*24 grid
  Total Charge: 0.000000 

Density mixing:
  Method: separate
  Backend: pulay
  Linear mixing parameter: 0.05
  Mixing with 5 old densities
  Damping of long wave oscillations: 50 

Hamiltonian:
  XC and Coulomb potentials evaluated on a 24*24*24 grid
  Using the LDA Exchange-Correlation functional
 

Memory estimate:
  Process memory now: 165.83 MiB
  Calculator: 76.27 MiB
    Density: 0.68 MiB
      Arrays: 0.34 MiB
      Localized functions: 0.21 MiB
      Mixer: 0.13 MiB
    Hamiltonian: 0.23 MiB
      Arrays: 0.22 MiB
      XC: 0.00 MiB
      Poisson: 0.00 MiB
      vbar: 0.00 MiB
    Wavefunctions: 75.36 MiB
      Arrays psit_nG: 25.15 MiB
      Eigensolver: 0.03 MiB
      Projections: 1.61 MiB
      Projectors: 42.22 MiB
      PW-descriptor: 6.35 MiB

Total number of cores used: 1

Number of atoms: 1
Number of atomic orbitals: 4
Number of bands in calculation: 4
Bands to converge: occupied states only
Number of valence electrons: 3

... initialized

Initializing position-dependent things.

Density initialized from atomic densities
Creating initial wave functions:
  4 bands from LCAO basis set

                
                
                
       Al       
                
                
                
                

Positions:
   0 Al     0.000000    0.000000    0.000000    ( 0.0000,  0.0000,  0.0000)

Unit cell:
           periodic     x           y           z      points  spacing
  1. axis:    yes    0.000000    2.021500    2.021500    12     0.1945
  2. axis:    yes    2.021500    0.000000    2.021500    12     0.1945
  3. axis:    yes    2.021500    2.021500    0.000000    12     0.1945

  Lengths:   2.858833   2.858833   2.858833
  Angles:   60.000000  60.000000  60.000000

Effective grid spacing dv^(1/3) = 0.2122

                     log10-error:    total        iterations:
           time      wfs    density  energy       fermi  poisson
iter:   1  03:23:34  +1.20   +inf    -4.174768    2             
iter:   2  03:23:45  -2.65  -0.95    -4.175650    2             
iter:   3  03:23:56  -2.74  -0.96    -4.172737    2             
iter:   4  03:24:07  -3.97  -1.21    -4.170761    2             
iter:   5  03:24:18  -5.41  -2.16    -4.171063    2             
iter:   6  03:24:29  -5.05  -2.01    -4.170832    2             
iter:   7  03:24:40  -6.67  -2.69    -4.170827    2             
iter:   8  03:24:51  -8.22  -3.75    -4.170827    2             
iter:   9  03:25:02  -9.61  -4.06    -4.170827    1             

Converged after 9 iterations.

Dipole moment: (-0.000000, -0.000000, 0.000000) |e|*Ang

Energy contributions relative to reference atoms: (reference = -6578.421307)

Kinetic:         +4.049456
Potential:       -2.134020
External:        +0.000000
XC:              -6.074064
Entropy (-ST):   -0.013349
Local:           -0.005524
--------------------------
Free energy:     -4.177501
Extrapolated:    -4.170827

Fermi level: 6.95071

Showing only first 2 kpts
 Kpt  Band  Eigenvalues  Occupancy
  0     0     -4.12014    0.00055
  0     1     18.92166    0.00000
  0     2     19.18076    0.00000

  1     0     -4.14320    0.00018
  1     1     19.34158    0.00000
  1     2     19.93036    0.00000


No gap
Timing:                              incl.     excl.
-----------------------------------------------------------
Hamiltonian:                         0.021     0.000   0.0% |
 Atomic:                             0.016     0.001   0.0% |
  XC Correction:                     0.015     0.015   0.0% |
 Calculate atomic Hamiltonians:      0.001     0.001   0.0% |
 Communicate:                        0.000     0.000   0.0% |
 Initialize Hamiltonian:             0.000     0.000   0.0% |
 Poisson:                            0.000     0.000   0.0% |
 XC 3D grid:                         0.004     0.004   0.0% |
LCAO initialization:                27.329     0.057   0.0% |
 LCAO eigensolver:                   5.534     0.157   0.1% |
  Calculate projections:             0.075     0.075   0.1% |
  DenseAtomicCorrection:             0.323     0.323   0.2% |
  Distribute overlap matrix:         0.082     0.082   0.1% |
  Orbital Layouts:                   0.331     0.331   0.3% |
  Potential matrix:                  0.030     0.030   0.0% |
  Sum over cells:                    4.535     4.535   3.4% ||
 LCAO to grid:                      14.597    14.597  11.1% |---|
 Set positions (LCAO WFS):           7.141     0.937   0.7% |
  Basic WFS set positions:           0.003     0.003   0.0% |
  Basis functions set positions:     0.000     0.000   0.0% |
  P tci:                             1.754     1.754   1.3% ||
  ST tci:                            4.426     4.426   3.4% ||
  mktci:                             0.023     0.023   0.0% |
PWDescriptor:                        0.168     0.168   0.1% |
SCF-cycle:                          99.648     2.608   2.0% ||
 Davidson:                          93.628    26.872  20.4% |-------|
  Apply H:                           5.237     4.346   3.3% ||
   HMM T:                            0.891     0.891   0.7% |
  Subspace diag:                    15.978     1.807   1.4% ||
   calc_h_matrix:                    9.112     3.686   2.8% ||
    Apply H:                         5.426     4.456   3.4% ||
     HMM T:                          0.971     0.971   0.7% |
   diagonalize:                      3.488     3.488   2.7% ||
   rotate_psi:                       1.571     1.571   1.2% |
  calc. matrices:                   33.936    23.590  17.9% |------|
   Apply H:                         10.346     8.549   6.5% |--|
    HMM T:                           1.796     1.796   1.4% ||
  diagonalize:                       9.661     9.661   7.3% |--|
  rotate_psi:                        1.944     1.944   1.5% ||
 Density:                            1.907     0.000   0.0% |
  Atomic density matrices:           0.289     0.289   0.2% |
  Mix:                               0.018     0.018   0.0% |
  Multipole moments:                 0.001     0.001   0.0% |
  Pseudo density:                    1.599     1.542   1.2% |
   Symmetrize density:               0.057     0.057   0.0% |
 Hamiltonian:                        0.167     0.003   0.0% |
  Atomic:                            0.132     0.006   0.0% |
   XC Correction:                    0.127     0.127   0.1% |
  Calculate atomic Hamiltonians:     0.005     0.005   0.0% |
  Communicate:                       0.000     0.000   0.0% |
  Poisson:                           0.001     0.001   0.0% |
  XC 3D grid:                        0.025     0.025   0.0% |
 Orthonormalize:                     1.338     0.197   0.1% |
  calc_s_matrix:                     0.300     0.300   0.2% |
  inverse-cholesky:                  0.447     0.447   0.3% |
  projections:                       0.330     0.330   0.3% |
  rotate_psi_s:                      0.064     0.064   0.0% |
Set symmetry:                        2.102     2.102   1.6% ||
Other:                               2.318     2.318   1.8% ||
-----------------------------------------------------------
Total:                                       131.587 100.0%

Memory usage: 203.64 MiB
Date: Thu Mar  5 03:25:02 2020
