
  ___ ___ ___ _ _ _  
 |   |   |_  | | | | 
 | | | | | . | | | | 
 |__ |  _|___|_____|  19.8.1
 |___|_|             

User:   ericlin@hebbe17-7
Date:   Thu Mar  5 12:36:55 2020
Arch:   x86_64
Pid:    1364
Python: 3.7.2
gpaw:   /apps/Hebbe7/software/MPI/intel/2019.1.144-GCC-8.2.0-2.31.1/impi/2018.4.274/GPAW/19.8.1-Python-3.7.2/lib/python3.7/site-packages/gpaw
_gpaw:  /apps/Hebbe7/software/MPI/intel/2019.1.144-GCC-8.2.0-2.31.1/impi/2018.4.274/GPAW/19.8.1-Python-3.7.2/bin/
        gpaw-python
ase:    /apps/Hebbe7/software/MPI/intel/2019.1.144-GCC-8.2.0-2.31.1/impi/2018.4.274/ASE/3.18.0-Python-3.7.2/lib/python3.7/site-packages/ase (version 3.18.0)
numpy:  /apps/Hebbe7/software/MPI/intel/2019.1.144-GCC-8.2.0-2.31.1/impi/2018.4.274/SciPy-bundle/2019.03/lib/python3.7/site-packages/numpy (version 1.16.2)
scipy:  /apps/Hebbe7/software/MPI/intel/2019.1.144-GCC-8.2.0-2.31.1/impi/2018.4.274/SciPy-bundle/2019.03/lib/python3.7/site-packages/scipy (version 1.2.1)
libxc:  4.3.4
units:  Angstrom and eV
cores:  1

Input parameters:
  kpts: [32 32 32]
  mode: {ecut: 300.0,
         gammacentered: False,
         name: pw}

System changes: positions, numbers, cell, pbc, initial_charges, initial_magmoms 

Initialize ...

Al-setup:
  name: Aluminium
  id: 2e6447feaea722efcff26bf034b25f30
  Z: 13
  valence: 3
  core: 10
  charge: 0.0
  file: /apps/Common/Core/GPAW-setups/0.9.20000/Al.LDA.gz
  compensation charges: gauss, rc=0.34, lmax=2
  cutoffs: 1.91(filt), 2.36(core),
  valence states:
                energy  radius
    3s(2.00)    -7.830   1.085
    3p(1.00)    -2.783   1.085
    *s          19.382   1.085
    *p          24.428   1.085
    *d           0.000   1.085

  Using partial waves for Al as LCAO basis

Reference energy: -6578.421307

Spin-paired calculation

Occupation numbers:
  Fermi-Dirac: width=0.1000 eV

Convergence criteria:
  Maximum total energy change: 0.0005 eV / electron
  Maximum integral of absolute density change: 0.0001 electrons
  Maximum integral of absolute eigenstate change: 4e-08 eV^2
  Maximum number of iterations: 333

Symmetries present (total): 48

  ( 1  0  0)  ( 1  0  0)  ( 1  0  0)  ( 1  0  0)  ( 1  0 -1)  ( 1  0 -1)
  ( 1  0 -1)  ( 1 -1  0)  ( 0  1  0)  ( 0  0  1)  ( 1  0  0)  ( 1 -1  0)
  ( 1 -1  0)  ( 1  0 -1)  ( 0  0  1)  ( 0  1  0)  ( 1 -1  0)  ( 1  0  0)

  ( 1  0 -1)  ( 1  0 -1)  ( 1 -1  0)  ( 1 -1  0)  ( 1 -1  0)  ( 1 -1  0)
  ( 0  1 -1)  ( 0  0 -1)  ( 1  0  0)  ( 1  0 -1)  ( 0 -1  1)  ( 0 -1  0)
  ( 0  0 -1)  ( 0  1 -1)  ( 1  0 -1)  ( 1  0  0)  ( 0 -1  0)  ( 0 -1  1)

  ( 0  1  0)  ( 0  1  0)  ( 0  1  0)  ( 0  1  0)  ( 0  1 -1)  ( 0  1 -1)
  ( 1  0  0)  ( 0  1 -1)  ( 0  0  1)  (-1  1  0)  ( 1  0 -1)  ( 0  1  0)
  ( 0  0  1)  (-1  1  0)  ( 1  0  0)  ( 0  1 -1)  ( 0  0 -1)  (-1  1  0)

  ( 0  1 -1)  ( 0  1 -1)  ( 0  0  1)  ( 0  0  1)  ( 0  0  1)  ( 0  0  1)
  ( 0  0 -1)  (-1  1  0)  ( 1  0  0)  ( 0  1  0)  ( 0 -1  1)  (-1  0  1)
  ( 1  0 -1)  ( 0  1  0)  ( 0  1  0)  ( 1  0  0)  (-1  0  1)  ( 0 -1  1)

  ( 0  0 -1)  ( 0  0 -1)  ( 0  0 -1)  ( 0  0 -1)  ( 0 -1  1)  ( 0 -1  1)
  ( 1  0 -1)  ( 0  1 -1)  ( 0 -1  0)  (-1  0  0)  ( 1 -1  0)  ( 0  0  1)
  ( 0  1 -1)  ( 1  0 -1)  (-1  0  0)  ( 0 -1  0)  ( 0 -1  0)  (-1  0  1)

  ( 0 -1  1)  ( 0 -1  1)  ( 0 -1  0)  ( 0 -1  0)  ( 0 -1  0)  ( 0 -1  0)
  ( 0 -1  0)  (-1  0  1)  ( 1 -1  0)  ( 0  0 -1)  ( 0 -1  1)  (-1  0  0)
  ( 1 -1  0)  ( 0  0  1)  ( 0 -1  1)  (-1  0  0)  ( 1 -1  0)  ( 0  0 -1)

  (-1  1  0)  (-1  1  0)  (-1  1  0)  (-1  1  0)  (-1  0  1)  (-1  0  1)
  ( 0  1  0)  ( 0  1 -1)  (-1  0  1)  (-1  0  0)  ( 0  0  1)  ( 0 -1  1)
  ( 0  1 -1)  ( 0  1  0)  (-1  0  0)  (-1  0  1)  ( 0 -1  1)  ( 0  0  1)

  (-1  0  1)  (-1  0  1)  (-1  0  0)  (-1  0  0)  (-1  0  0)  (-1  0  0)
  (-1  1  0)  (-1  0  0)  ( 0  0 -1)  ( 0 -1  0)  (-1  1  0)  (-1  0  1)
  (-1  0  0)  (-1  1  0)  ( 0 -1  0)  ( 0  0 -1)  (-1  0  1)  (-1  1  0)
Note: your k-points are not as symmetric as your crystal!

32768 k-points: 32 x 32 x 32 Monkhorst-Pack grid
2992 k-points in the irreducible part of the Brillouin zone
       k-points in crystal coordinates                weights
   0:     0.01562500    0.01562500   -0.01562500          6/32768
   1:     0.01562500    0.01562500    0.01562500          2/32768
   2:     0.04687500   -0.01562500   -0.01562500          6/32768
   3:     0.04687500    0.01562500   -0.04687500         12/32768
   4:     0.04687500    0.01562500   -0.01562500         12/32768
   5:     0.04687500    0.01562500    0.01562500          6/32768
   6:     0.04687500    0.04687500   -0.04687500          6/32768
   7:     0.04687500    0.04687500   -0.01562500          6/32768
   8:     0.04687500    0.04687500    0.01562500          6/32768
   9:     0.04687500    0.04687500    0.04687500          2/32768
          ...
2991:     0.48437500    0.48437500    0.48437500          2/32768

Wave functions: Plane wave expansion
  Cutoff energy: 300.000 eV
  Number of coefficients (min, max): 176, 204
  Pulay-stress correction: 0.000000 eV/Ang^3 (de/decut=0.000000)
  Using FFTW library
  ScaLapack parameters: grid=1x1, blocksize=None
  Wavefunction extrapolation:
    Improved wavefunction reuse through dual PAW basis 

Eigensolver
   Davidson(niter=2, smin=None, normalize=True) 

Densities:
  Coarse grid: 12*12*12 grid
  Fine grid: 24*24*24 grid
  Total Charge: 0.000000 

Density mixing:
  Method: separate
  Backend: pulay
  Linear mixing parameter: 0.05
  Mixing with 5 old densities
  Damping of long wave oscillations: 50 

Hamiltonian:
  XC and Coulomb potentials evaluated on a 24*24*24 grid
  Using the LDA Exchange-Correlation functional
 

Memory estimate:
  Process memory now: 187.34 MiB
  Calculator: 112.18 MiB
    Density: 0.68 MiB
      Arrays: 0.34 MiB
      Localized functions: 0.21 MiB
      Mixer: 0.13 MiB
    Hamiltonian: 0.23 MiB
      Arrays: 0.22 MiB
      XC: 0.00 MiB
      Poisson: 0.00 MiB
      vbar: 0.00 MiB
    Wavefunctions: 111.27 MiB
      Arrays psit_nG: 37.25 MiB
      Eigensolver: 0.03 MiB
      Projections: 2.37 MiB
      Projectors: 62.23 MiB
      PW-descriptor: 9.38 MiB

Total number of cores used: 1

Number of atoms: 1
Number of atomic orbitals: 4
Number of bands in calculation: 4
Bands to converge: occupied states only
Number of valence electrons: 3

... initialized

Initializing position-dependent things.

Density initialized from atomic densities
Creating initial wave functions:
  4 bands from LCAO basis set

                
                
                
       Al       
                
                
                
                

Positions:
   0 Al     0.000000    0.000000    0.000000    ( 0.0000,  0.0000,  0.0000)

Unit cell:
           periodic     x           y           z      points  spacing
  1. axis:    yes    0.000000    2.021500    2.021500    12     0.1945
  2. axis:    yes    2.021500    0.000000    2.021500    12     0.1945
  3. axis:    yes    2.021500    2.021500    0.000000    12     0.1945

  Lengths:   2.858833   2.858833   2.858833
  Angles:   60.000000  60.000000  60.000000

Effective grid spacing dv^(1/3) = 0.2122

                     log10-error:    total        iterations:
           time      wfs    density  energy       fermi  poisson
iter:   1  12:37:43  +1.20   +inf    -4.174702    2             
iter:   2  12:37:57  -2.65  -0.95    -4.175582    2             
iter:   3  12:38:10  -2.74  -0.96    -4.172659    2             
iter:   4  12:38:23  -3.97  -1.21    -4.170686    2             
iter:   5  12:38:37  -5.41  -2.16    -4.170986    2             
iter:   6  12:38:50  -5.05  -2.01    -4.170758    2             
iter:   7  12:39:04  -6.67  -2.69    -4.170752    2             
iter:   8  12:39:17  -8.21  -3.75    -4.170752    2             
iter:   9  12:39:31  -9.59  -4.06    -4.170752    1             

Converged after 9 iterations.

Dipole moment: (-0.000000, -0.000000, -0.000000) |e|*Ang

Energy contributions relative to reference atoms: (reference = -6578.421307)

Kinetic:         +4.048886
Potential:       -2.133404
External:        +0.000000
XC:              -6.073999
Entropy (-ST):   -0.013420
Local:           -0.005525
--------------------------
Free energy:     -4.177462
Extrapolated:    -4.170752

Fermi level: 6.95043

Showing only first 2 kpts
 Kpt  Band  Eigenvalues  Occupancy
  0     0     -4.12758    0.00037
  0     1     19.04671    0.00000
  0     2     19.26221    0.00000

  1     0     -4.14523    0.00012
  1     1     19.43664    0.00000
  1     2     20.04305    0.00000


No gap
Writing to kConverge.gpw (mode='')

Writing to Al_calc.gpw (mode='')

Timing:                              incl.     excl.
-----------------------------------------------------------
Hamiltonian:                         0.019     0.000   0.0% |
 Atomic:                             0.015     0.000   0.0% |
  XC Correction:                     0.015     0.015   0.0% |
 Calculate atomic Hamiltonians:      0.000     0.000   0.0% |
 Communicate:                        0.000     0.000   0.0% |
 Initialize Hamiltonian:             0.000     0.000   0.0% |
 Poisson:                            0.000     0.000   0.0% |
 XC 3D grid:                         0.003     0.003   0.0% |
LCAO initialization:                27.935     0.066   0.0% |
 LCAO eigensolver:                   6.984     0.117   0.1% |
  Calculate projections:             0.060     0.060   0.0% |
  DenseAtomicCorrection:             0.215     0.215   0.1% |
  Distribute overlap matrix:         0.055     0.055   0.0% |
  Orbital Layouts:                   0.218     0.218   0.1% |
  Potential matrix:                  0.027     0.027   0.0% |
  Sum over cells:                    6.292     6.292   3.9% |-|
 LCAO to grid:                      11.879    11.879   7.3% |--|
 Set positions (LCAO WFS):           9.006     1.198   0.7% |
  Basic WFS set positions:           0.002     0.002   0.0% |
  Basis functions set positions:     0.000     0.000   0.0% |
  P tci:                             2.314     2.314   1.4% ||
  ST tci:                            5.469     5.469   3.4% ||
  mktci:                             0.022     0.022   0.0% |
PWDescriptor:                        0.235     0.235   0.1% |
SCF-cycle:                         122.036     3.422   2.1% ||
 Davidson:                         114.242    32.991  20.2% |-------|
  Apply H:                           6.901     5.697   3.5% ||
   HMM T:                            1.205     1.205   0.7% |
  Subspace diag:                    18.936     2.120   1.3% ||
   calc_h_matrix:                   11.700     4.664   2.9% ||
    Apply H:                         7.036     5.722   3.5% ||
     HMM T:                          1.314     1.314   0.8% |
   diagonalize:                      3.067     3.067   1.9% ||
   rotate_psi:                       2.049     2.049   1.3% ||
  calc. matrices:                   45.061    31.288  19.2% |-------|
   Apply H:                         13.772    11.314   6.9% |--|
    HMM T:                           2.458     2.458   1.5% ||
  diagonalize:                       7.692     7.692   4.7% |-|
  rotate_psi:                        2.661     2.661   1.6% ||
 Density:                            2.671     0.000   0.0% |
  Atomic density matrices:           0.429     0.429   0.3% |
  Mix:                               0.012     0.012   0.0% |
  Multipole moments:                 0.001     0.001   0.0% |
  Pseudo density:                    2.229     2.178   1.3% ||
   Symmetrize density:               0.051     0.051   0.0% |
 Hamiltonian:                        0.155     0.003   0.0% |
  Atomic:                            0.124     0.004   0.0% |
   XC Correction:                    0.120     0.120   0.1% |
  Calculate atomic Hamiltonians:     0.006     0.006   0.0% |
  Communicate:                       0.000     0.000   0.0% |
  Poisson:                           0.001     0.001   0.0% |
  XC 3D grid:                        0.021     0.021   0.0% |
 Orthonormalize:                     1.547     0.233   0.1% |
  calc_s_matrix:                     0.388     0.388   0.2% |
  inverse-cholesky:                  0.434     0.434   0.3% |
  projections:                       0.404     0.404   0.2% |
  rotate_psi_s:                      0.087     0.087   0.1% |
Set symmetry:                        2.307     2.307   1.4% ||
Other:                              10.635    10.635   6.5% |--|
-----------------------------------------------------------
Total:                                       163.167 100.0%

Memory usage: 268.16 MiB
Date: Thu Mar  5 12:39:38 2020
