#  #

9000  atoms
1  atom types

0.00000000 57.10600000  xlo xhi
0.00000000 42.82950000  ylo yhi
0.00000000 42.82950000  zlo zhi

Atoms

1   1  0.00000000 0.00000000 0.00000000
2   1  1.42765000 1.42765000 1.42765000
3   1  0.00000000 0.00000000 2.85530000
4   1  1.42765000 1.42765000 4.28295000
5   1  0.00000000 0.00000000 5.71060000
6   1  1.42765000 1.42765000 7.13825000
7   1  0.00000000 0.00000000 8.56590000
8   1  1.42765000 1.42765000 9.99355000
9   1  0.00000000 0.00000000 11.42120000
10   1  1.42765000 1.42765000 12.84885000
11   1  0.00000000 0.00000000 14.27650000
12   1  1.42765000 1.42765000 15.70415000
13   1  0.00000000 0.00000000 17.13180000
14   1  1.42765000 1.42765000 18.55945000
15   1  0.00000000 0.00000000 19.98710000
16   1  1.42765000 1.42765000 21.41475000
17   1  0.00000000 0.00000000 22.84240000
18   1  1.42765000 1.42765000 24.27005000
19   1  0.00000000 0.00000000 25.69770000
20   1  1.42765000 1.42765000 27.12535000
21   1  0.00000000 0.00000000 28.55300000
22   1  1.42765000 1.42765000 29.98065000
23   1  0.00000000 0.00000000 31.40830000
24   1  1.42765000 1.42765000 32.83595000
25   1  0.00000000 0.00000000 34.26360000
26   1  1.42765000 1.42765000 35.69125000
27   1  0.00000000 0.00000000 37.11890000
28   1  1.42765000 1.42765000 38.54655000
29   1  0.00000000 0.00000000 39.97420000
30   1  1.42765000 1.42765000 41.40185000
31   1  0.00000000 2.85530000 0.00000000
32   1  1.42765000 4.28295000 1.42765000
33   1  0.00000000 2.85530000 2.85530000
34   1  1.42765000 4.28295000 4.28295000
35   1  0.00000000 2.85530000 5.71060000
36   1  1.42765000 4.28295000 7.13825000
37   1  0.00000000 2.85530000 8.56590000
38   1  1.42765000 4.28295000 9.99355000
39   1  0.00000000 2.85530000 11.42120000
40   1  1.42765000 4.28295000 12.84885000
41   1  0.00000000 2.85530000 14.27650000
42   1  1.42765000 4.28295000 15.70415000
43   1  0.00000000 2.85530000 17.13180000
44   1  1.42765000 4.28295000 18.55945000
45   1  0.00000000 2.85530000 19.98710000
46   1  1.42765000 4.28295000 21.41475000
47   1  0.00000000 2.85530000 22.84240000
48   1  1.42765000 4.28295000 24.27005000
49   1  0.00000000 2.85530000 25.69770000
50   1  1.42765000 4.28295000 27.12535000
51   1  0.00000000 2.85530000 28.55300000
52   1  1.42765000 4.28295000 29.98065000
53   1  0.00000000 2.85530000 31.40830000
54   1  1.42765000 4.28295000 32.83595000
55   1  0.00000000 2.85530000 34.26360000
56   1  1.42765000 4.28295000 35.69125000
57   1  0.00000000 2.85530000 37.11890000
58   1  1.42765000 4.28295000 38.54655000
59   1  0.00000000 2.85530000 39.97420000
60   1  1.42765000 4.28295000 41.40185000
61   1  0.00000000 5.71060000 0.00000000
62   1  1.42765000 7.13825000 1.42765000
63   1  0.00000000 5.71060000 2.85530000
64   1  1.42765000 7.13825000 4.28295000
65   1  0.00000000 5.71060000 5.71060000
66   1  1.42765000 7.13825000 7.13825000
67   1  0.00000000 5.71060000 8.56590000
68   1  1.42765000 7.13825000 9.99355000
69   1  0.00000000 5.71060000 11.42120000
70   1  1.42765000 7.13825000 12.84885000
71   1  0.00000000 5.71060000 14.27650000
72   1  1.42765000 7.13825000 15.70415000
73   1  0.00000000 5.71060000 17.13180000
74   1  1.42765000 7.13825000 18.55945000
75   1  0.00000000 5.71060000 19.98710000
76   1  1.42765000 7.13825000 21.41475000
77   1  0.00000000 5.71060000 22.84240000
78   1  1.42765000 7.13825000 24.27005000
79   1  0.00000000 5.71060000 25.69770000
80   1  1.42765000 7.13825000 27.12535000
81   1  0.00000000 5.71060000 28.55300000
82   1  1.42765000 7.13825000 29.98065000
83   1  0.00000000 5.71060000 31.40830000
84   1  1.42765000 7.13825000 32.83595000
85   1  0.00000000 5.71060000 34.26360000
86   1  1.42765000 7.13825000 35.69125000
87   1  0.00000000 5.71060000 37.11890000
88   1  1.42765000 7.13825000 38.54655000
89   1  0.00000000 5.71060000 39.97420000
90   1  1.42765000 7.13825000 41.40185000
91   1  0.00000000 8.56590000 0.00000000
92   1  1.42765000 9.99355000 1.42765000
93   1  0.00000000 8.56590000 2.85530000
94   1  1.42765000 9.99355000 4.28295000
95   1  0.00000000 8.56590000 5.71060000
96   1  1.42765000 9.99355000 7.13825000
97   1  0.00000000 8.56590000 8.56590000
98   1  1.42765000 9.99355000 9.99355000
99   1  0.00000000 8.56590000 11.42120000
100   1  1.42765000 9.99355000 12.84885000
101   1  0.00000000 8.56590000 14.27650000
102   1  1.42765000 9.99355000 15.70415000
103   1  0.00000000 8.56590000 17.13180000
104   1  1.42765000 9.99355000 18.55945000
105   1  0.00000000 8.56590000 19.98710000
106   1  1.42765000 9.99355000 21.41475000
107   1  0.00000000 8.56590000 22.84240000
108   1  1.42765000 9.99355000 24.27005000
109   1  0.00000000 8.56590000 25.69770000
110   1  1.42765000 9.99355000 27.12535000
111   1  0.00000000 8.56590000 28.55300000
112   1  1.42765000 9.99355000 29.98065000
113   1  0.00000000 8.56590000 31.40830000
114   1  1.42765000 9.99355000 32.83595000
115   1  0.00000000 8.56590000 34.26360000
116   1  1.42765000 9.99355000 35.69125000
117   1  0.00000000 8.56590000 37.11890000
118   1  1.42765000 9.99355000 38.54655000
119   1  0.00000000 8.56590000 39.97420000
120   1  1.42765000 9.99355000 41.40185000
121   1  0.00000000 11.42120000 0.00000000
122   1  1.42765000 12.84885000 1.42765000
123   1  0.00000000 11.42120000 2.85530000
124   1  1.42765000 12.84885000 4.28295000
125   1  0.00000000 11.42120000 5.71060000
126   1  1.42765000 12.84885000 7.13825000
127   1  0.00000000 11.42120000 8.56590000
128   1  1.42765000 12.84885000 9.99355000
129   1  0.00000000 11.42120000 11.42120000
130   1  1.42765000 12.84885000 12.84885000
131   1  0.00000000 11.42120000 14.27650000
132   1  1.42765000 12.84885000 15.70415000
133   1  0.00000000 11.42120000 17.13180000
134   1  1.42765000 12.84885000 18.55945000
135   1  0.00000000 11.42120000 19.98710000
136   1  1.42765000 12.84885000 21.41475000
137   1  0.00000000 11.42120000 22.84240000
138   1  1.42765000 12.84885000 24.27005000
139   1  0.00000000 11.42120000 25.69770000
140   1  1.42765000 12.84885000 27.12535000
141   1  0.00000000 11.42120000 28.55300000
142   1  1.42765000 12.84885000 29.98065000
143   1  0.00000000 11.42120000 31.40830000
144   1  1.42765000 12.84885000 32.83595000
145   1  0.00000000 11.42120000 34.26360000
146   1  1.42765000 12.84885000 35.69125000
147   1  0.00000000 11.42120000 37.11890000
148   1  1.42765000 12.84885000 38.54655000
149   1  0.00000000 11.42120000 39.97420000
150   1  1.42765000 12.84885000 41.40185000
151   1  0.00000000 14.27650000 0.00000000
152   1  1.42765000 15.70415000 1.42765000
153   1  0.00000000 14.27650000 2.85530000
154   1  1.42765000 15.70415000 4.28295000
155   1  0.00000000 14.27650000 5.71060000
156   1  1.42765000 15.70415000 7.13825000
157   1  0.00000000 14.27650000 8.56590000
158   1  1.42765000 15.70415000 9.99355000
159   1  0.00000000 14.27650000 11.42120000
160   1  1.42765000 15.70415000 12.84885000
161   1  0.00000000 14.27650000 14.27650000
162   1  1.42765000 15.70415000 15.70415000
163   1  0.00000000 14.27650000 17.13180000
164   1  1.42765000 15.70415000 18.55945000
165   1  0.00000000 14.27650000 19.98710000
166   1  1.42765000 15.70415000 21.41475000
167   1  0.00000000 14.27650000 22.84240000
168   1  1.42765000 15.70415000 24.27005000
169   1  0.00000000 14.27650000 25.69770000
170   1  1.42765000 15.70415000 27.12535000
171   1  0.00000000 14.27650000 28.55300000
172   1  1.42765000 15.70415000 29.98065000
173   1  0.00000000 14.27650000 31.40830000
174   1  1.42765000 15.70415000 32.83595000
175   1  0.00000000 14.27650000 34.26360000
176   1  1.42765000 15.70415000 35.69125000
177   1  0.00000000 14.27650000 37.11890000
178   1  1.42765000 15.70415000 38.54655000
179   1  0.00000000 14.27650000 39.97420000
180   1  1.42765000 15.70415000 41.40185000
181   1  0.00000000 17.13180000 0.00000000
182   1  1.42765000 18.55945000 1.42765000
183   1  0.00000000 17.13180000 2.85530000
184   1  1.42765000 18.55945000 4.28295000
185   1  0.00000000 17.13180000 5.71060000
186   1  1.42765000 18.55945000 7.13825000
187   1  0.00000000 17.13180000 8.56590000
188   1  1.42765000 18.55945000 9.99355000
189   1  0.00000000 17.13180000 11.42120000
190   1  1.42765000 18.55945000 12.84885000
191   1  0.00000000 17.13180000 14.27650000
192   1  1.42765000 18.55945000 15.70415000
193   1  0.00000000 17.13180000 17.13180000
194   1  1.42765000 18.55945000 18.55945000
195   1  0.00000000 17.13180000 19.98710000
196   1  1.42765000 18.55945000 21.41475000
197   1  0.00000000 17.13180000 22.84240000
198   1  1.42765000 18.55945000 24.27005000
199   1  0.00000000 17.13180000 25.69770000
200   1  1.42765000 18.55945000 27.12535000
201   1  0.00000000 17.13180000 28.55300000
202   1  1.42765000 18.55945000 29.98065000
203   1  0.00000000 17.13180000 31.40830000
204   1  1.42765000 18.55945000 32.83595000
205   1  0.00000000 17.13180000 34.26360000
206   1  1.42765000 18.55945000 35.69125000
207   1  0.00000000 17.13180000 37.11890000
208   1  1.42765000 18.55945000 38.54655000
209   1  0.00000000 17.13180000 39.97420000
210   1  1.42765000 18.55945000 41.40185000
211   1  0.00000000 19.98710000 0.00000000
212   1  1.42765000 21.41475000 1.42765000
213   1  0.00000000 19.98710000 2.85530000
214   1  1.42765000 21.41475000 4.28295000
215   1  0.00000000 19.98710000 5.71060000
216   1  1.42765000 21.41475000 7.13825000
217   1  0.00000000 19.98710000 8.56590000
218   1  1.42765000 21.41475000 9.99355000
219   1  0.00000000 19.98710000 11.42120000
220   1  1.42765000 21.41475000 12.84885000
221   1  0.00000000 19.98710000 14.27650000
222   1  1.42765000 21.41475000 15.70415000
223   1  0.00000000 19.98710000 17.13180000
224   1  1.42765000 21.41475000 18.55945000
225   1  0.00000000 19.98710000 19.98710000
226   1  1.42765000 21.41475000 21.41475000
227   1  0.00000000 19.98710000 22.84240000
228   1  1.42765000 21.41475000 24.27005000
229   1  0.00000000 19.98710000 25.69770000
230   1  1.42765000 21.41475000 27.12535000
231   1  0.00000000 19.98710000 28.55300000
232   1  1.42765000 21.41475000 29.98065000
233   1  0.00000000 19.98710000 31.40830000
234   1  1.42765000 21.41475000 32.83595000
235   1  0.00000000 19.98710000 34.26360000
236   1  1.42765000 21.41475000 35.69125000
237   1  0.00000000 19.98710000 37.11890000
238   1  1.42765000 21.41475000 38.54655000
239   1  0.00000000 19.98710000 39.97420000
240   1  1.42765000 21.41475000 41.40185000
241   1  0.00000000 22.84240000 0.00000000
242   1  1.42765000 24.27005000 1.42765000
243   1  0.00000000 22.84240000 2.85530000
244   1  1.42765000 24.27005000 4.28295000
245   1  0.00000000 22.84240000 5.71060000
246   1  1.42765000 24.27005000 7.13825000
247   1  0.00000000 22.84240000 8.56590000
248   1  1.42765000 24.27005000 9.99355000
249   1  0.00000000 22.84240000 11.42120000
250   1  1.42765000 24.27005000 12.84885000
251   1  0.00000000 22.84240000 14.27650000
252   1  1.42765000 24.27005000 15.70415000
253   1  0.00000000 22.84240000 17.13180000
254   1  1.42765000 24.27005000 18.55945000
255   1  0.00000000 22.84240000 19.98710000
256   1  1.42765000 24.27005000 21.41475000
257   1  0.00000000 22.84240000 22.84240000
258   1  1.42765000 24.27005000 24.27005000
259   1  0.00000000 22.84240000 25.69770000
260   1  1.42765000 24.27005000 27.12535000
261   1  0.00000000 22.84240000 28.55300000
262   1  1.42765000 24.27005000 29.98065000
263   1  0.00000000 22.84240000 31.40830000
264   1  1.42765000 24.27005000 32.83595000
265   1  0.00000000 22.84240000 34.26360000
266   1  1.42765000 24.27005000 35.69125000
267   1  0.00000000 22.84240000 37.11890000
268   1  1.42765000 24.27005000 38.54655000
269   1  0.00000000 22.84240000 39.97420000
270   1  1.42765000 24.27005000 41.40185000
271   1  0.00000000 25.69770000 0.00000000
272   1  1.42765000 27.12535000 1.42765000
273   1  0.00000000 25.69770000 2.85530000
274   1  1.42765000 27.12535000 4.28295000
275   1  0.00000000 25.69770000 5.71060000
276   1  1.42765000 27.12535000 7.13825000
277   1  0.00000000 25.69770000 8.56590000
278   1  1.42765000 27.12535000 9.99355000
279   1  0.00000000 25.69770000 11.42120000
280   1  1.42765000 27.12535000 12.84885000
281   1  0.00000000 25.69770000 14.27650000
282   1  1.42765000 27.12535000 15.70415000
283   1  0.00000000 25.69770000 17.13180000
284   1  1.42765000 27.12535000 18.55945000
285   1  0.00000000 25.69770000 19.98710000
286   1  1.42765000 27.12535000 21.41475000
287   1  0.00000000 25.69770000 22.84240000
288   1  1.42765000 27.12535000 24.27005000
289   1  0.00000000 25.69770000 25.69770000
290   1  1.42765000 27.12535000 27.12535000
291   1  0.00000000 25.69770000 28.55300000
292   1  1.42765000 27.12535000 29.98065000
293   1  0.00000000 25.69770000 31.40830000
294   1  1.42765000 27.12535000 32.83595000
295   1  0.00000000 25.69770000 34.26360000
296   1  1.42765000 27.12535000 35.69125000
297   1  0.00000000 25.69770000 37.11890000
298   1  1.42765000 27.12535000 38.54655000
299   1  0.00000000 25.69770000 39.97420000
300   1  1.42765000 27.12535000 41.40185000
301   1  0.00000000 28.55300000 0.00000000
302   1  1.42765000 29.98065000 1.42765000
303   1  0.00000000 28.55300000 2.85530000
304   1  1.42765000 29.98065000 4.28295000
305   1  0.00000000 28.55300000 5.71060000
306   1  1.42765000 29.98065000 7.13825000
307   1  0.00000000 28.55300000 8.56590000
308   1  1.42765000 29.98065000 9.99355000
309   1  0.00000000 28.55300000 11.42120000
310   1  1.42765000 29.98065000 12.84885000
311   1  0.00000000 28.55300000 14.27650000
312   1  1.42765000 29.98065000 15.70415000
313   1  0.00000000 28.55300000 17.13180000
314   1  1.42765000 29.98065000 18.55945000
315   1  0.00000000 28.55300000 19.98710000
316   1  1.42765000 29.98065000 21.41475000
317   1  0.00000000 28.55300000 22.84240000
318   1  1.42765000 29.98065000 24.27005000
319   1  0.00000000 28.55300000 25.69770000
320   1  1.42765000 29.98065000 27.12535000
321   1  0.00000000 28.55300000 28.55300000
322   1  1.42765000 29.98065000 29.98065000
323   1  0.00000000 28.55300000 31.40830000
324   1  1.42765000 29.98065000 32.83595000
325   1  0.00000000 28.55300000 34.26360000
326   1  1.42765000 29.98065000 35.69125000
327   1  0.00000000 28.55300000 37.11890000
328   1  1.42765000 29.98065000 38.54655000
329   1  0.00000000 28.55300000 39.97420000
330   1  1.42765000 29.98065000 41.40185000
331   1  0.00000000 31.40830000 0.00000000
332   1  1.42765000 32.83595000 1.42765000
333   1  0.00000000 31.40830000 2.85530000
334   1  1.42765000 32.83595000 4.28295000
335   1  0.00000000 31.40830000 5.71060000
336   1  1.42765000 32.83595000 7.13825000
337   1  0.00000000 31.40830000 8.56590000
338   1  1.42765000 32.83595000 9.99355000
339   1  0.00000000 31.40830000 11.42120000
340   1  1.42765000 32.83595000 12.84885000
341   1  0.00000000 31.40830000 14.27650000
342   1  1.42765000 32.83595000 15.70415000
343   1  0.00000000 31.40830000 17.13180000
344   1  1.42765000 32.83595000 18.55945000
345   1  0.00000000 31.40830000 19.98710000
346   1  1.42765000 32.83595000 21.41475000
347   1  0.00000000 31.40830000 22.84240000
348   1  1.42765000 32.83595000 24.27005000
349   1  0.00000000 31.40830000 25.69770000
350   1  1.42765000 32.83595000 27.12535000
351   1  0.00000000 31.40830000 28.55300000
352   1  1.42765000 32.83595000 29.98065000
353   1  0.00000000 31.40830000 31.40830000
354   1  1.42765000 32.83595000 32.83595000
355   1  0.00000000 31.40830000 34.26360000
356   1  1.42765000 32.83595000 35.69125000
357   1  0.00000000 31.40830000 37.11890000
358   1  1.42765000 32.83595000 38.54655000
359   1  0.00000000 31.40830000 39.97420000
360   1  1.42765000 32.83595000 41.40185000
361   1  0.00000000 34.26360000 0.00000000
362   1  1.42765000 35.69125000 1.42765000
363   1  0.00000000 34.26360000 2.85530000
364   1  1.42765000 35.69125000 4.28295000
365   1  0.00000000 34.26360000 5.71060000
366   1  1.42765000 35.69125000 7.13825000
367   1  0.00000000 34.26360000 8.56590000
368   1  1.42765000 35.69125000 9.99355000
369   1  0.00000000 34.26360000 11.42120000
370   1  1.42765000 35.69125000 12.84885000
371   1  0.00000000 34.26360000 14.27650000
372   1  1.42765000 35.69125000 15.70415000
373   1  0.00000000 34.26360000 17.13180000
374   1  1.42765000 35.69125000 18.55945000
375   1  0.00000000 34.26360000 19.98710000
376   1  1.42765000 35.69125000 21.41475000
377   1  0.00000000 34.26360000 22.84240000
378   1  1.42765000 35.69125000 24.27005000
379   1  0.00000000 34.26360000 25.69770000
380   1  1.42765000 35.69125000 27.12535000
381   1  0.00000000 34.26360000 28.55300000
382   1  1.42765000 35.69125000 29.98065000
383   1  0.00000000 34.26360000 31.40830000
384   1  1.42765000 35.69125000 32.83595000
385   1  0.00000000 34.26360000 34.26360000
386   1  1.42765000 35.69125000 35.69125000
387   1  0.00000000 34.26360000 37.11890000
388   1  1.42765000 35.69125000 38.54655000
389   1  0.00000000 34.26360000 39.97420000
390   1  1.42765000 35.69125000 41.40185000
391   1  0.00000000 37.11890000 0.00000000
392   1  1.42765000 38.54655000 1.42765000
393   1  0.00000000 37.11890000 2.85530000
394   1  1.42765000 38.54655000 4.28295000
395   1  0.00000000 37.11890000 5.71060000
396   1  1.42765000 38.54655000 7.13825000
397   1  0.00000000 37.11890000 8.56590000
398   1  1.42765000 38.54655000 9.99355000
399   1  0.00000000 37.11890000 11.42120000
400   1  1.42765000 38.54655000 12.84885000
401   1  0.00000000 37.11890000 14.27650000
402   1  1.42765000 38.54655000 15.70415000
403   1  0.00000000 37.11890000 17.13180000
404   1  1.42765000 38.54655000 18.55945000
405   1  0.00000000 37.11890000 19.98710000
406   1  1.42765000 38.54655000 21.41475000
407   1  0.00000000 37.11890000 22.84240000
408   1  1.42765000 38.54655000 24.27005000
409   1  0.00000000 37.11890000 25.69770000
410   1  1.42765000 38.54655000 27.12535000
411   1  0.00000000 37.11890000 28.55300000
412   1  1.42765000 38.54655000 29.98065000
413   1  0.00000000 37.11890000 31.40830000
414   1  1.42765000 38.54655000 32.83595000
415   1  0.00000000 37.11890000 34.26360000
416   1  1.42765000 38.54655000 35.69125000
417   1  0.00000000 37.11890000 37.11890000
418   1  1.42765000 38.54655000 38.54655000
419   1  0.00000000 37.11890000 39.97420000
420   1  1.42765000 38.54655000 41.40185000
421   1  0.00000000 39.97420000 0.00000000
422   1  1.42765000 41.40185000 1.42765000
423   1  0.00000000 39.97420000 2.85530000
424   1  1.42765000 41.40185000 4.28295000
425   1  0.00000000 39.97420000 5.71060000
426   1  1.42765000 41.40185000 7.13825000
427   1  0.00000000 39.97420000 8.56590000
428   1  1.42765000 41.40185000 9.99355000
429   1  0.00000000 39.97420000 11.42120000
430   1  1.42765000 41.40185000 12.84885000
431   1  0.00000000 39.97420000 14.27650000
432   1  1.42765000 41.40185000 15.70415000
433   1  0.00000000 39.97420000 17.13180000
434   1  1.42765000 41.40185000 18.55945000
435   1  0.00000000 39.97420000 19.98710000
436   1  1.42765000 41.40185000 21.41475000
437   1  0.00000000 39.97420000 22.84240000
438   1  1.42765000 41.40185000 24.27005000
439   1  0.00000000 39.97420000 25.69770000
440   1  1.42765000 41.40185000 27.12535000
441   1  0.00000000 39.97420000 28.55300000
442   1  1.42765000 41.40185000 29.98065000
443   1  0.00000000 39.97420000 31.40830000
444   1  1.42765000 41.40185000 32.83595000
445   1  0.00000000 39.97420000 34.26360000
446   1  1.42765000 41.40185000 35.69125000
447   1  0.00000000 39.97420000 37.11890000
448   1  1.42765000 41.40185000 38.54655000
449   1  0.00000000 39.97420000 39.97420000
450   1  1.42765000 41.40185000 41.40185000
451   1  2.85530000 0.00000000 0.00000000
452   1  4.28295000 1.42765000 1.42765000
453   1  2.85530000 0.00000000 2.85530000
454   1  4.28295000 1.42765000 4.28295000
455   1  2.85530000 0.00000000 5.71060000
456   1  4.28295000 1.42765000 7.13825000
457   1  2.85530000 0.00000000 8.56590000
458   1  4.28295000 1.42765000 9.99355000
459   1  2.85530000 0.00000000 11.42120000
460   1  4.28295000 1.42765000 12.84885000
461   1  2.85530000 0.00000000 14.27650000
462   1  4.28295000 1.42765000 15.70415000
463   1  2.85530000 0.00000000 17.13180000
464   1  4.28295000 1.42765000 18.55945000
465   1  2.85530000 0.00000000 19.98710000
466   1  4.28295000 1.42765000 21.41475000
467   1  2.85530000 0.00000000 22.84240000
468   1  4.28295000 1.42765000 24.27005000
469   1  2.85530000 0.00000000 25.69770000
470   1  4.28295000 1.42765000 27.12535000
471   1  2.85530000 0.00000000 28.55300000
472   1  4.28295000 1.42765000 29.98065000
473   1  2.85530000 0.00000000 31.40830000
474   1  4.28295000 1.42765000 32.83595000
475   1  2.85530000 0.00000000 34.26360000
476   1  4.28295000 1.42765000 35.69125000
477   1  2.85530000 0.00000000 37.11890000
478   1  4.28295000 1.42765000 38.54655000
479   1  2.85530000 0.00000000 39.97420000
480   1  4.28295000 1.42765000 41.40185000
481   1  2.85530000 2.85530000 0.00000000
482   1  4.28295000 4.28295000 1.42765000
483   1  2.85530000 2.85530000 2.85530000
484   1  4.28295000 4.28295000 4.28295000
485   1  2.85530000 2.85530000 5.71060000
486   1  4.28295000 4.28295000 7.13825000
487   1  2.85530000 2.85530000 8.56590000
488   1  4.28295000 4.28295000 9.99355000
489   1  2.85530000 2.85530000 11.42120000
490   1  4.28295000 4.28295000 12.84885000
491   1  2.85530000 2.85530000 14.27650000
492   1  4.28295000 4.28295000 15.70415000
493   1  2.85530000 2.85530000 17.13180000
494   1  4.28295000 4.28295000 18.55945000
495   1  2.85530000 2.85530000 19.98710000
496   1  4.28295000 4.28295000 21.41475000
497   1  2.85530000 2.85530000 22.84240000
498   1  4.28295000 4.28295000 24.27005000
499   1  2.85530000 2.85530000 25.69770000
500   1  4.28295000 4.28295000 27.12535000
501   1  2.85530000 2.85530000 28.55300000
502   1  4.28295000 4.28295000 29.98065000
503   1  2.85530000 2.85530000 31.40830000
504   1  4.28295000 4.28295000 32.83595000
505   1  2.85530000 2.85530000 34.26360000
506   1  4.28295000 4.28295000 35.69125000
507   1  2.85530000 2.85530000 37.11890000
508   1  4.28295000 4.28295000 38.54655000
509   1  2.85530000 2.85530000 39.97420000
510   1  4.28295000 4.28295000 41.40185000
511   1  2.85530000 5.71060000 0.00000000
512   1  4.28295000 7.13825000 1.42765000
513   1  2.85530000 5.71060000 2.85530000
514   1  4.28295000 7.13825000 4.28295000
515   1  2.85530000 5.71060000 5.71060000
516   1  4.28295000 7.13825000 7.13825000
517   1  2.85530000 5.71060000 8.56590000
518   1  4.28295000 7.13825000 9.99355000
519   1  2.85530000 5.71060000 11.42120000
520   1  4.28295000 7.13825000 12.84885000
521   1  2.85530000 5.71060000 14.27650000
522   1  4.28295000 7.13825000 15.70415000
523   1  2.85530000 5.71060000 17.13180000
524   1  4.28295000 7.13825000 18.55945000
525   1  2.85530000 5.71060000 19.98710000
526   1  4.28295000 7.13825000 21.41475000
527   1  2.85530000 5.71060000 22.84240000
528   1  4.28295000 7.13825000 24.27005000
529   1  2.85530000 5.71060000 25.69770000
530   1  4.28295000 7.13825000 27.12535000
531   1  2.85530000 5.71060000 28.55300000
532   1  4.28295000 7.13825000 29.98065000
533   1  2.85530000 5.71060000 31.40830000
534   1  4.28295000 7.13825000 32.83595000
535   1  2.85530000 5.71060000 34.26360000
536   1  4.28295000 7.13825000 35.69125000
537   1  2.85530000 5.71060000 37.11890000
538   1  4.28295000 7.13825000 38.54655000
539   1  2.85530000 5.71060000 39.97420000
540   1  4.28295000 7.13825000 41.40185000
541   1  2.85530000 8.56590000 0.00000000
542   1  4.28295000 9.99355000 1.42765000
543   1  2.85530000 8.56590000 2.85530000
544   1  4.28295000 9.99355000 4.28295000
545   1  2.85530000 8.56590000 5.71060000
546   1  4.28295000 9.99355000 7.13825000
547   1  2.85530000 8.56590000 8.56590000
548   1  4.28295000 9.99355000 9.99355000
549   1  2.85530000 8.56590000 11.42120000
550   1  4.28295000 9.99355000 12.84885000
551   1  2.85530000 8.56590000 14.27650000
552   1  4.28295000 9.99355000 15.70415000
553   1  2.85530000 8.56590000 17.13180000
554   1  4.28295000 9.99355000 18.55945000
555   1  2.85530000 8.56590000 19.98710000
556   1  4.28295000 9.99355000 21.41475000
557   1  2.85530000 8.56590000 22.84240000
558   1  4.28295000 9.99355000 24.27005000
559   1  2.85530000 8.56590000 25.69770000
560   1  4.28295000 9.99355000 27.12535000
561   1  2.85530000 8.56590000 28.55300000
562   1  4.28295000 9.99355000 29.98065000
563   1  2.85530000 8.56590000 31.40830000
564   1  4.28295000 9.99355000 32.83595000
565   1  2.85530000 8.56590000 34.26360000
566   1  4.28295000 9.99355000 35.69125000
567   1  2.85530000 8.56590000 37.11890000
568   1  4.28295000 9.99355000 38.54655000
569   1  2.85530000 8.56590000 39.97420000
570   1  4.28295000 9.99355000 41.40185000
571   1  2.85530000 11.42120000 0.00000000
572   1  4.28295000 12.84885000 1.42765000
573   1  2.85530000 11.42120000 2.85530000
574   1  4.28295000 12.84885000 4.28295000
575   1  2.85530000 11.42120000 5.71060000
576   1  4.28295000 12.84885000 7.13825000
577   1  2.85530000 11.42120000 8.56590000
578   1  4.28295000 12.84885000 9.99355000
579   1  2.85530000 11.42120000 11.42120000
580   1  4.28295000 12.84885000 12.84885000
581   1  2.85530000 11.42120000 14.27650000
582   1  4.28295000 12.84885000 15.70415000
583   1  2.85530000 11.42120000 17.13180000
584   1  4.28295000 12.84885000 18.55945000
585   1  2.85530000 11.42120000 19.98710000
586   1  4.28295000 12.84885000 21.41475000
587   1  2.85530000 11.42120000 22.84240000
588   1  4.28295000 12.84885000 24.27005000
589   1  2.85530000 11.42120000 25.69770000
590   1  4.28295000 12.84885000 27.12535000
591   1  2.85530000 11.42120000 28.55300000
592   1  4.28295000 12.84885000 29.98065000
593   1  2.85530000 11.42120000 31.40830000
594   1  4.28295000 12.84885000 32.83595000
595   1  2.85530000 11.42120000 34.26360000
596   1  4.28295000 12.84885000 35.69125000
597   1  2.85530000 11.42120000 37.11890000
598   1  4.28295000 12.84885000 38.54655000
599   1  2.85530000 11.42120000 39.97420000
600   1  4.28295000 12.84885000 41.40185000
601   1  2.85530000 14.27650000 0.00000000
602   1  4.28295000 15.70415000 1.42765000
603   1  2.85530000 14.27650000 2.85530000
604   1  4.28295000 15.70415000 4.28295000
605   1  2.85530000 14.27650000 5.71060000
606   1  4.28295000 15.70415000 7.13825000
607   1  2.85530000 14.27650000 8.56590000
608   1  4.28295000 15.70415000 9.99355000
609   1  2.85530000 14.27650000 11.42120000
610   1  4.28295000 15.70415000 12.84885000
611   1  2.85530000 14.27650000 14.27650000
612   1  4.28295000 15.70415000 15.70415000
613   1  2.85530000 14.27650000 17.13180000
614   1  4.28295000 15.70415000 18.55945000
615   1  2.85530000 14.27650000 19.98710000
616   1  4.28295000 15.70415000 21.41475000
617   1  2.85530000 14.27650000 22.84240000
618   1  4.28295000 15.70415000 24.27005000
619   1  2.85530000 14.27650000 25.69770000
620   1  4.28295000 15.70415000 27.12535000
621   1  2.85530000 14.27650000 28.55300000
622   1  4.28295000 15.70415000 29.98065000
623   1  2.85530000 14.27650000 31.40830000
624   1  4.28295000 15.70415000 32.83595000
625   1  2.85530000 14.27650000 34.26360000
626   1  4.28295000 15.70415000 35.69125000
627   1  2.85530000 14.27650000 37.11890000
628   1  4.28295000 15.70415000 38.54655000
629   1  2.85530000 14.27650000 39.97420000
630   1  4.28295000 15.70415000 41.40185000
631   1  2.85530000 17.13180000 0.00000000
632   1  4.28295000 18.55945000 1.42765000
633   1  2.85530000 17.13180000 2.85530000
634   1  4.28295000 18.55945000 4.28295000
635   1  2.85530000 17.13180000 5.71060000
636   1  4.28295000 18.55945000 7.13825000
637   1  2.85530000 17.13180000 8.56590000
638   1  4.28295000 18.55945000 9.99355000
639   1  2.85530000 17.13180000 11.42120000
640   1  4.28295000 18.55945000 12.84885000
641   1  2.85530000 17.13180000 14.27650000
642   1  4.28295000 18.55945000 15.70415000
643   1  2.85530000 17.13180000 17.13180000
644   1  4.28295000 18.55945000 18.55945000
645   1  2.85530000 17.13180000 19.98710000
646   1  4.28295000 18.55945000 21.41475000
647   1  2.85530000 17.13180000 22.84240000
648   1  4.28295000 18.55945000 24.27005000
649   1  2.85530000 17.13180000 25.69770000
650   1  4.28295000 18.55945000 27.12535000
651   1  2.85530000 17.13180000 28.55300000
652   1  4.28295000 18.55945000 29.98065000
653   1  2.85530000 17.13180000 31.40830000
654   1  4.28295000 18.55945000 32.83595000
655   1  2.85530000 17.13180000 34.26360000
656   1  4.28295000 18.55945000 35.69125000
657   1  2.85530000 17.13180000 37.11890000
658   1  4.28295000 18.55945000 38.54655000
659   1  2.85530000 17.13180000 39.97420000
660   1  4.28295000 18.55945000 41.40185000
661   1  2.85530000 19.98710000 0.00000000
662   1  4.28295000 21.41475000 1.42765000
663   1  2.85530000 19.98710000 2.85530000
664   1  4.28295000 21.41475000 4.28295000
665   1  2.85530000 19.98710000 5.71060000
666   1  4.28295000 21.41475000 7.13825000
667   1  2.85530000 19.98710000 8.56590000
668   1  4.28295000 21.41475000 9.99355000
669   1  2.85530000 19.98710000 11.42120000
670   1  4.28295000 21.41475000 12.84885000
671   1  2.85530000 19.98710000 14.27650000
672   1  4.28295000 21.41475000 15.70415000
673   1  2.85530000 19.98710000 17.13180000
674   1  4.28295000 21.41475000 18.55945000
675   1  2.85530000 19.98710000 19.98710000
676   1  4.28295000 21.41475000 21.41475000
677   1  2.85530000 19.98710000 22.84240000
678   1  4.28295000 21.41475000 24.27005000
679   1  2.85530000 19.98710000 25.69770000
680   1  4.28295000 21.41475000 27.12535000
681   1  2.85530000 19.98710000 28.55300000
682   1  4.28295000 21.41475000 29.98065000
683   1  2.85530000 19.98710000 31.40830000
684   1  4.28295000 21.41475000 32.83595000
685   1  2.85530000 19.98710000 34.26360000
686   1  4.28295000 21.41475000 35.69125000
687   1  2.85530000 19.98710000 37.11890000
688   1  4.28295000 21.41475000 38.54655000
689   1  2.85530000 19.98710000 39.97420000
690   1  4.28295000 21.41475000 41.40185000