ITEM: TIMESTEP
4
ITEM: NUMBER OF ATOMS
9000
ITEM: BOX BOUNDS pp pp pp
-1.2454929418246455e-04 5.7106124549294186e+01
-9.3411970636848420e-05 4.2829593411970642e+01
-9.3411970636848420e-05 4.2829593411970642e+01
ITEM: ATOMS id x y z 
1 -0.000124549 -9.3412e-05 -9.3412e-05 
2 1.42753 1.42756 1.42756 
3 -0.000124549 -9.3412e-05 2.85522 
31 -0.000124549 2.85522 -9.3412e-05 
33 -0.000124549 2.85522 2.85522 
451 2.85519 -9.3412e-05 -9.3412e-05 
453 2.85519 -9.3412e-05 2.85522 
481 2.85519 2.85522 -9.3412e-05 
483 2.85519 2.85522 2.85522 
452 4.28284 1.42756 1.42756 
901 5.7105 -9.3412e-05 -9.3412e-05 
902 7.13816 1.42756 1.42756 
903 5.7105 -9.3412e-05 2.85522 
931 5.7105 2.85522 -9.3412e-05 
933 5.7105 2.85522 2.85522 
1351 8.56581 -9.3412e-05 -9.3412e-05 
1352 9.99347 1.42756 1.42756 
1353 8.56581 -9.3412e-05 2.85522 
1381 8.56581 2.85522 -9.3412e-05 
1383 8.56581 2.85522 2.85522 
1801 11.4211 -9.3412e-05 -9.3412e-05 
1803 11.4211 -9.3412e-05 2.85522 
1831 11.4211 2.85522 -9.3412e-05 
1833 11.4211 2.85522 2.85522 
1802 12.8488 1.42756 1.42756 
2251 14.2764 -9.3412e-05 -9.3412e-05 
2252 15.7041 1.42756 1.42756 
2253 14.2764 -9.3412e-05 2.85522 
2281 14.2764 2.85522 -9.3412e-05 
2283 14.2764 2.85522 2.85522 
2701 17.1318 -9.3412e-05 -9.3412e-05 
2702 18.5594 1.42756 1.42756 
2703 17.1318 -9.3412e-05 2.85522 
2731 17.1318 2.85522 -9.3412e-05 
2733 17.1318 2.85522 2.85522 
3151 19.9871 -9.3412e-05 -9.3412e-05 
3153 19.9871 -9.3412e-05 2.85522 
3181 19.9871 2.85522 -9.3412e-05 
3183 19.9871 2.85522 2.85522 
3152 21.4147 1.42756 1.42756 
3601 22.8424 -9.3412e-05 -9.3412e-05 
3602 24.27 1.42756 1.42756 
3603 22.8424 -9.3412e-05 2.85522 
3631 22.8424 2.85522 -9.3412e-05 
3633 22.8424 2.85522 2.85522 
4051 25.6977 -9.3412e-05 -9.3412e-05 
4052 27.1253 1.42756 1.42756 
4053 25.6977 -9.3412e-05 2.85522 
4081 25.6977 2.85522 -9.3412e-05 
4083 25.6977 2.85522 2.85522 
32 1.42753 4.28288 1.42756 
61 -0.000124549 5.71053 -9.3412e-05 
62 1.42753 7.13819 1.42756 
63 -0.000124549 5.71053 2.85522 
511 2.85519 5.71053 -9.3412e-05 
513 2.85519 5.71053 2.85522 
482 4.28284 4.28288 1.42756 
512 4.28284 7.13819 1.42756 
932 7.13816 4.28288 1.42756 
961 5.7105 5.71053 -9.3412e-05 
962 7.13816 7.13819 1.42756 
963 5.7105 5.71053 2.85522 
1382 9.99347 4.28288 1.42756 
1411 8.56581 5.71053 -9.3412e-05 
1412 9.99347 7.13819 1.42756 
1413 8.56581 5.71053 2.85522 
1861 11.4211 5.71053 -9.3412e-05 
1863 11.4211 5.71053 2.85522 
1832 12.8488 4.28288 1.42756 
1862 12.8488 7.13819 1.42756 
2282 15.7041 4.28288 1.42756 
2311 14.2764 5.71053 -9.3412e-05 
2312 15.7041 7.13819 1.42756 
2313 14.2764 5.71053 2.85522 
2732 18.5594 4.28288 1.42756 
2761 17.1318 5.71053 -9.3412e-05 
2762 18.5594 7.13819 1.42756 
2763 17.1318 5.71053 2.85522 
3211 19.9871 5.71053 -9.3412e-05 
3213 19.9871 5.71053 2.85522 
3182 21.4147 4.28288 1.42756 
3212 21.4147 7.13819 1.42756 
3632 24.27 4.28288 1.42756 
3661 22.8424 5.71053 -9.3412e-05 
3662 24.27 7.13819 1.42756 
3663 22.8424 5.71053 2.85522 
4082 27.1253 4.28288 1.42756 
4111 25.6977 5.71053 -9.3412e-05 
4112 27.1253 7.13819 1.42756 
4113 25.6977 5.71053 2.85522 
91 -0.000124549 8.56584 -9.3412e-05 
92 1.42753 9.9935 1.42756 
93 -0.000124549 8.56584 2.85522 
121 -0.000124549 11.4212 -9.3412e-05 
123 -0.000124549 11.4212 2.85522 
541 2.85519 8.56584 -9.3412e-05 
543 2.85519 8.56584 2.85522 
571 2.85519 11.4212 -9.3412e-05 
573 2.85519 11.4212 2.85522 
542 4.28284 9.9935 1.42756 
991 5.7105 8.56584 -9.3412e-05 
992 7.13816 9.9935 1.42756 
993 5.7105 8.56584 2.85522 
1021 5.7105 11.4212 -9.3412e-05 
1023 5.7105 11.4212 2.85522 
1441 8.56581 8.56584 -9.3412e-05 
1442 9.99347 9.9935 1.42756 
1443 8.56581 8.56584 2.85522 
1471 8.56581 11.4212 -9.3412e-05 
1473 8.56581 11.4212 2.85522 
1891 11.4211 8.56584 -9.3412e-05 
1893 11.4211 8.56584 2.85522 
1921 11.4211 11.4212 -9.3412e-05 
1923 11.4211 11.4212 2.85522 
1892 12.8488 9.9935 1.42756 
2341 14.2764 8.56584 -9.3412e-05 
2342 15.7041 9.9935 1.42756 
2343 14.2764 8.56584 2.85522 
2371 14.2764 11.4212 -9.3412e-05 
2373 14.2764 11.4212 2.85522 
2791 17.1318 8.56584 -9.3412e-05 
2792 18.5594 9.9935 1.42756 
2793 17.1318 8.56584 2.85522 
2821 17.1318 11.4212 -9.3412e-05 
2823 17.1318 11.4212 2.85522 
3241 19.9871 8.56584 -9.3412e-05 
3243 19.9871 8.56584 2.85522 
3271 19.9871 11.4212 -9.3412e-05 
3273 19.9871 11.4212 2.85522 
3242 21.4147 9.9935 1.42756 
3691 22.8424 8.56584 -9.3412e-05 
3692 24.27 9.9935 1.42756 
3693 22.8424 8.56584 2.85522 
3721 22.8424 11.4212 -9.3412e-05 
3723 22.8424 11.4212 2.85522 
4141 25.6977 8.56584 -9.3412e-05 
4142 27.1253 9.9935 1.42756 
4143 25.6977 8.56584 2.85522 
4171 25.6977 11.4212 -9.3412e-05 
4173 25.6977 11.4212 2.85522 
122 1.42753 12.8488 1.42756 
151 -0.000124549 14.2765 -9.3412e-05 
153 -0.000124549 14.2765 2.85522 
601 2.85519 14.2765 -9.3412e-05 
603 2.85519 14.2765 2.85522 
572 4.28284 12.8488 1.42756 
1022 7.13816 12.8488 1.42756 
1051 5.7105 14.2765 -9.3412e-05 
1053 5.7105 14.2765 2.85522 
1472 9.99347 12.8488 1.42756 
1501 8.56581 14.2765 -9.3412e-05 
1503 8.56581 14.2765 2.85522 
1951 11.4211 14.2765 -9.3412e-05 
1953 11.4211 14.2765 2.85522 
1922 12.8488 12.8488 1.42756 
2372 15.7041 12.8488 1.42756 
2401 14.2764 14.2765 -9.3412e-05 
2403 14.2764 14.2765 2.85522 
2822 18.5594 12.8488 1.42756 
2851 17.1318 14.2765 -9.3412e-05 
2853 17.1318 14.2765 2.85522 
3301 19.9871 14.2765 -9.3412e-05 
3303 19.9871 14.2765 2.85522 
3272 21.4147 12.8488 1.42756 
3722 24.27 12.8488 1.42756 
3751 22.8424 14.2765 -9.3412e-05 
3753 22.8424 14.2765 2.85522 
4172 27.1253 12.8488 1.42756 
4201 25.6977 14.2765 -9.3412e-05 
4203 25.6977 14.2765 2.85522 
152 1.42753 15.7041 1.42756 
181 -0.000124549 17.1318 -9.3412e-05 
182 1.42753 18.5594 1.42756 
183 -0.000124549 17.1318 2.85522 
631 2.85519 17.1318 -9.3412e-05 
633 2.85519 17.1318 2.85522 
602 4.28284 15.7041 1.42756 
632 4.28284 18.5594 1.42756 
1052 7.13816 15.7041 1.42756 
1081 5.7105 17.1318 -9.3412e-05 
1082 7.13816 18.5594 1.42756 
1083 5.7105 17.1318 2.85522 
1502 9.99347 15.7041 1.42756 
1531 8.56581 17.1318 -9.3412e-05 
1532 9.99347 18.5594 1.42756 
1533 8.56581 17.1318 2.85522 
1981 11.4211 17.1318 -9.3412e-05 
1983 11.4211 17.1318 2.85522 
1952 12.8488 15.7041 1.42756 
1982 12.8488 18.5594 1.42756 
2402 15.7041 15.7041 1.42756 
2431 14.2764 17.1318 -9.3412e-05 
2432 15.7041 18.5594 1.42756 
2433 14.2764 17.1318 2.85522 
2852 18.5594 15.7041 1.42756 
2881 17.1318 17.1318 -9.3412e-05 
2882 18.5594 18.5594 1.42756 
2883 17.1318 17.1318 2.85522 
3331 19.9871 17.1318 -9.3412e-05 
3333 19.9871 17.1318 2.85522 
3302 21.4147 15.7041 1.42756 
3332 21.4147 18.5594 1.42756 
3752 24.27 15.7041 1.42756 
3781 22.8424 17.1318 -9.3412e-05 
3782 24.27 18.5594 1.42756 
3783 22.8424 17.1318 2.85522 
4202 27.1253 15.7041 1.42756 
4231 25.6977 17.1318 -9.3412e-05 
4232 27.1253 18.5594 1.42756 
4233 25.6977 17.1318 2.85522 
211 -0.000124549 19.9871 -9.3412e-05 
212 1.42753 21.4148 1.42756 
213 -0.000124549 19.9871 2.85522 
241 -0.000124549 22.8424 -9.3412e-05 
243 -0.000124549 22.8424 2.85522 
661 2.85519 19.9871 -9.3412e-05 
663 2.85519 19.9871 2.85522 
691 2.85519 22.8424 -9.3412e-05 
693 2.85519 22.8424 2.85522 
662 4.28284 21.4148 1.42756 
1111 5.7105 19.9871 -9.3412e-05 
1112 7.13816 21.4148 1.42756 
1113 5.7105 19.9871 2.85522 
1141 5.7105 22.8424 -9.3412e-05 
1143 5.7105 22.8424 2.85522 
1561 8.56581 19.9871 -9.3412e-05 
1562 9.99347 21.4148 1.42756 
1563 8.56581 19.9871 2.85522 
1591 8.56581 22.8424 -9.3412e-05 
1593 8.56581 22.8424 2.85522 
2011 11.4211 19.9871 -9.3412e-05 
2013 11.4211 19.9871 2.85522 
2041 11.4211 22.8424 -9.3412e-05 
2043 11.4211 22.8424 2.85522 
2012 12.8488 21.4148 1.42756 
2461 14.2764 19.9871 -9.3412e-05 
2462 15.7041 21.4148 1.42756 
2463 14.2764 19.9871 2.85522 
2491 14.2764 22.8424 -9.3412e-05 
2493 14.2764 22.8424 2.85522 
2911 17.1318 19.9871 -9.3412e-05 
2912 18.5594 21.4148 1.42756 
2913 17.1318 19.9871 2.85522 
2941 17.1318 22.8424 -9.3412e-05 
2943 17.1318 22.8424 2.85522 
3361 19.9871 19.9871 -9.3412e-05 
3363 19.9871 19.9871 2.85522 
3391 19.9871 22.8424 -9.3412e-05 
3393 19.9871 22.8424 2.85522 
3362 21.4147 21.4148 1.42756 
3811 22.8424 19.9871 -9.3412e-05 
3812 24.27 21.4148 1.42756 
3813 22.8424 19.9871 2.85522 
3841 22.8424 22.8424 -9.3412e-05 
3843 22.8424 22.8424 2.85522 
4261 25.6977 19.9871 -9.3412e-05 
4262 27.1253 21.4148 1.42756 
4263 25.6977 19.9871 2.85522 
4291 25.6977 22.8424 -9.3412e-05 
4293 25.6977 22.8424 2.85522 
242 1.42753 24.2701 1.42756 
271 -0.000124549 25.6977 -9.3412e-05 
272 1.42753 27.1254 1.42756 
273 -0.000124549 25.6977 2.85522 
721 2.85519 25.6977 -9.3412e-05 
723 2.85519 25.6977 2.85522 
692 4.28284 24.2701 1.42756 
722 4.28284 27.1254 1.42756 
1142 7.13816 24.2701 1.42756 
1171 5.7105 25.6977 -9.3412e-05 
1172 7.13816 27.1254 1.42756 
1173 5.7105 25.6977 2.85522 
1592 9.99347 24.2701 1.42756 
1621 8.56581 25.6977 -9.3412e-05 
1622 9.99347 27.1254 1.42756 
1623 8.56581 25.6977 2.85522 
2071 11.4211 25.6977 -9.3412e-05 
2073 11.4211 25.6977 2.85522 
2042 12.8488 24.2701 1.42756 
2072 12.8488 27.1254 1.42756 
2492 15.7041 24.2701 1.42756 
2521 14.2764 25.6977 -9.3412e-05 
2522 15.7041 27.1254 1.42756 
2523 14.2764 25.6977 2.85522 
2942 18.5594 24.2701 1.42756 
2971 17.1318 25.6977 -9.3412e-05 
2972 18.5594 27.1254 1.42756 
2973 17.1318 25.6977 2.85522 
3421 19.9871 25.6977 -9.3412e-05 
3423 19.9871 25.6977 2.85522 
3392 21.4147 24.2701 1.42756 
3422 21.4147 27.1254 1.42756 
3842 24.27 24.2701 1.42756 
3871 22.8424 25.6977 -9.3412e-05 
3872 24.27 27.1254 1.42756 
3873 22.8424 25.6977 2.85522 
4292 27.1253 24.2701 1.42756 
4321 25.6977 25.6977 -9.3412e-05 
4322 27.1253 27.1254 1.42756 
4323 25.6977 25.6977 2.85522 
301 -0.000124549 28.553 -9.3412e-05 
302 1.42753 29.9807 1.42756 
303 -0.000124549 28.553 2.85522 
751 2.85519 28.553 -9.3412e-05 
753 2.85519 28.553 2.85522 
752 4.28284 29.9807 1.42756 
1201 5.7105 28.553 -9.3412e-05 
1202 7.13816 29.9807 1.42756 
1203 5.7105 28.553 2.85522 
1651 8.56581 28.553 -9.3412e-05 
1652 9.99347 29.9807 1.42756 
1653 8.56581 28.553 2.85522 
2101 11.4211 28.553 -9.3412e-05 
2103 11.4211 28.553 2.85522 
2102 12.8488 29.9807 1.42756 
2551 14.2764 28.553 -9.3412e-05 
2552 15.7041 29.9807 1.42756 
2553 14.2764 28.553 2.85522 
3001 17.1318 28.553 -9.3412e-05 
3002 18.5594 29.9807 1.42756 
3003 17.1318 28.553 2.85522 
3451 19.9871 28.553 -9.3412e-05 
3453 19.9871 28.553 2.85522 
3452 21.4147 29.9807 1.42756 
3901 22.8424 28.553 -9.3412e-05 
3902 24.27 29.9807 1.42756 
3903 22.8424 28.553 2.85522 
4351 25.6977 28.553 -9.3412e-05 
4352 27.1253 29.9807 1.42756 
4353 25.6977 28.553 2.85522 
331 -0.000124549 31.4083 -9.3412e-05 
332 1.42753 32.836 1.42756 
333 -0.000124549 31.4083 2.85522 
361 -0.000124549 34.2637 -9.3412e-05 
363 -0.000124549 34.2637 2.85522 
781 2.85519 31.4083 -9.3412e-05 
783 2.85519 31.4083 2.85522 
811 2.85519 34.2637 -9.3412e-05 
813 2.85519 34.2637 2.85522 
782 4.28284 32.836 1.42756 
1231 5.7105 31.4083 -9.3412e-05 
1232 7.13816 32.836 1.42756 
1233 5.7105 31.4083 2.85522 
1261 5.7105 34.2637 -9.3412e-05 
1263 5.7105 34.2637 2.85522 
1681 8.56581 31.4083 -9.3412e-05 
1682 9.99347 32.836 1.42756 
1683 8.56581 31.4083 2.85522 
1711 8.56581 34.2637 -9.3412e-05 
1713 8.56581 34.2637 2.85522 
2131 11.4211 31.4083 -9.3412e-05 
2133 11.4211 31.4083 2.85522 
2161 11.4211 34.2637 -9.3412e-05 
2163 11.4211 34.2637 2.85522 
2132 12.8488 32.836 1.42756 
2581 14.2764 31.4083 -9.3412e-05 
2582 15.7041 32.836 1.42756 
2583 14.2764 31.4083 2.85522 
2611 14.2764 34.2637 -9.3412e-05 
2613 14.2764 34.2637 2.85522 
3031 17.1318 31.4083 -9.3412e-05 
3032 18.5594 32.836 1.42756 
3033 17.1318 31.4083 2.85522 
3061 17.1318 34.2637 -9.3412e-05 
3063 17.1318 34.2637 2.85522 
3481 19.9871 31.4083 -9.3412e-05 
3483 19.9871 31.4083 2.85522 
3511 19.9871 34.2637 -9.3412e-05 
3513 19.9871 34.2637 2.85522 
3482 21.4147 32.836 1.42756 
3931 22.8424 31.4083 -9.3412e-05 
3932 24.27 32.836 1.42756 
3933 22.8424 31.4083 2.85522 
3961 22.8424 34.2637 -9.3412e-05 
3963 22.8424 34.2637 2.85522 
4381 25.6977 31.4083 -9.3412e-05 
4382 27.1253 32.836 1.42756 
4383 25.6977 31.4083 2.85522 
4411 25.6977 34.2637 -9.3412e-05 
4413 25.6977 34.2637 2.85522 
362 1.42753 35.6913 1.42756 
391 -0.000124549 37.119 -9.3412e-05 
392 1.42753 38.5466 1.42756 
393 -0.000124549 37.119 2.85522 
841 2.85519 37.119 -9.3412e-05 
843 2.85519 37.119 2.85522 
812 4.28284 35.6913 1.42756 
842 4.28284 38.5466 1.42756 
1262 7.13816 35.6913 1.42756 
1291 5.7105 37.119 -9.3412e-05 
1292 7.13816 38.5466 1.42756 
1293 5.7105 37.119 2.85522 
1712 9.99347 35.6913 1.42756 
1741 8.56581 37.119 -9.3412e-05 
1742 9.99347 38.5466 1.42756 
1743 8.56581 37.119 2.85522 
2191 11.4211 37.119 -9.3412e-05 
2193 11.4211 37.119 2.85522 
2162 12.8488 35.6913 1.42756 
2192 12.8488 38.5466 1.42756 
2612 15.7041 35.6913 1.42756 
2641 14.2764 37.119 -9.3412e-05 
2642 15.7041 38.5466 1.42756 
2643 14.2764 37.119 2.85522 
3062 18.5594 35.6913 1.42756 
3091 17.1318 37.119 -9.3412e-05 
3092 18.5594 38.5466 1.42756 
3093 17.1318 37.119 2.85522 
3541 19.9871 37.119 -9.3412e-05 
3543 19.9871 37.119 2.85522 
3512 21.4147 35.6913 1.42756 
3542 21.4147 38.5466 1.42756 
3962 24.27 35.6913 1.42756 
3991 22.8424 37.119 -9.3412e-05 
3992 24.27 38.5466 1.42756 
3993 22.8424 37.119 2.85522 
4412 27.1253 35.6913 1.42756 
4441 25.6977 37.119 -9.3412e-05 
4442 27.1253 38.5466 1.42756 
4443 25.6977 37.119 2.85522 
421 -0.000124549 39.9743 -9.3412e-05 
422 1.42753 41.4019 1.42756 
423 -0.000124549 39.9743 2.85522 
871 2.85519 39.9743 -9.3412e-05 
873 2.85519 39.9743 2.85522 
872 4.28284 41.4019 1.42756 
1321 5.7105 39.9743 -9.3412e-05 
1322 7.13816 41.4019 1.42756 
1323 5.7105 39.9743 2.85522 
1771 8.56581 39.9743 -9.3412e-05 
1772 9.99347 41.4019 1.42756 
1773 8.56581 39.9743 2.85522 
2221 11.4211 39.9743 -9.3412e-05 
2223 11.4211 39.9743 2.85522 
2222 12.8488 41.4019 1.42756 
2671 14.2764 39.9743 -9.3412e-05 
2672 15.7041 41.4019 1.42756 
2673 14.2764 39.9743 2.85522 
3121 17.1318 39.9743 -9.3412e-05 
3122 18.5594 41.4019 1.42756 
3123 17.1318 39.9743 2.85522 
3571 19.9871 39.9743 -9.3412e-05 
3573 19.9871 39.9743 2.85522 
3572 21.4147 41.4019 1.42756 
4021 22.8424 39.9743 -9.3412e-05 
4022 24.27 41.4019 1.42756 
4023 22.8424 39.9743 2.85522 
4471 25.6977 39.9743 -9.3412e-05 
4472 27.1253 41.4019 1.42756 
4473 25.6977 39.9743 2.85522 
4 1.42753 1.42756 4.28288 
5 -0.000124549 -9.3412e-05 5.71053 
6 1.42753 1.42756 7.13819 
35 -0.000124549 2.85522 5.71053 
455 2.85519 -9.3412e-05 5.71053 
485 2.85519 2.85522 5.71053 
454 4.28284 1.42756 4.28288 
456 4.28284 1.42756 7.13819 
904 7.13816 1.42756 4.28288 
905 5.7105 -9.3412e-05 5.71053 
906 7.13816 1.42756 7.13819 
935 5.7105 2.85522 5.71053 
1354 9.99347 1.42756 4.28288 
1355 8.56581 -9.3412e-05 5.71053 
1356 9.99347 1.42756 7.13819 
1385 8.56581 2.85522 5.71053 
1805 11.4211 -9.3412e-05 5.71053 
1835 11.4211 2.85522 5.71053 
1804 12.8488 1.42756 4.28288 
1806 12.8488 1.42756 7.13819 
2254 15.7041 1.42756 4.28288 
2255 14.2764 -9.3412e-05 5.71053 
2256 15.7041 1.42756 7.13819 
2285 14.2764 2.85522 5.71053 
2704 18.5594 1.42756 4.28288 
2705 17.1318 -9.3412e-05 5.71053 
2706 18.5594 1.42756 7.13819 
2735 17.1318 2.85522 5.71053 
3155 19.9871 -9.3412e-05 5.71053 
3185 19.9871 2.85522 5.71053 
3154 21.4147 1.42756 4.28288 
3156 21.4147 1.42756 7.13819 
3604 24.27 1.42756 4.28288 
3605 22.8424 -9.3412e-05 5.71053 
3606 24.27 1.42756 7.13819 
3635 22.8424 2.85522 5.71053 
4054 27.1253 1.42756 4.28288 
4055 25.6977 -9.3412e-05 5.71053 
4056 27.1253 1.42756 7.13819 
4085 25.6977 2.85522 5.71053 
34 1.42753 4.28288 4.28288 
36 1.42753 4.28288 7.13819 
64 1.42753 7.13819 4.28288 
65 -0.000124549 5.71053 5.71053 
66 1.42753 7.13819 7.13819 
515 2.85519 5.71053 5.71053 
484 4.28284 4.28288 4.28288 
486 4.28284 4.28288 7.13819 
514 4.28284 7.13819 4.28288 
516 4.28284 7.13819 7.13819 
934 7.13816 4.28288 4.28288 
936 7.13816 4.28288 7.13819 
964 7.13816 7.13819 4.28288 
965 5.7105 5.71053 5.71053 
966 7.13816 7.13819 7.13819 
1384 9.99347 4.28288 4.28288 
1386 9.99347 4.28288 7.13819 
1414 9.99347 7.13819 4.28288 
1415 8.56581 5.71053 5.71053 
1416 9.99347 7.13819 7.13819 
1865 11.4211 5.71053 5.71053 
1834 12.8488 4.28288 4.28288 
1836 12.8488 4.28288 7.13819 
1864 12.8488 7.13819 4.28288 
1866 12.8488 7.13819 7.13819 
2284 15.7041 4.28288 4.28288 
2286 15.7041 4.28288 7.13819 
2314 15.7041 7.13819 4.28288 
2315 14.2764 5.71053 5.71053 
2316 15.7041 7.13819 7.13819 
2734 18.5594 4.28288 4.28288 
2736 18.5594 4.28288 7.13819 
2764 18.5594 7.13819 4.28288 
2765 17.1318 5.71053 5.71053 
2766 18.5594 7.13819 7.13819 
3215 19.9871 5.71053 5.71053 
3184 21.4147 4.28288 4.28288 
3186 21.4147 4.28288 7.13819 
3214 21.4147 7.13819 4.28288 
3216 21.4147 7.13819 7.13819 
3634 24.27 4.28288 4.28288 
3636 24.27 4.28288 7.13819 
3664 24.27 7.13819 4.28288 
3665 22.8424 5.71053 5.71053 
3666 24.27 7.13819 7.13819 
4084 27.1253 4.28288 4.28288 
4086 27.1253 4.28288 7.13819 
4114 27.1253 7.13819 4.28288 
4115 25.6977 5.71053 5.71053 
4116 27.1253 7.13819 7.13819 
94 1.42753 9.9935 4.28288 
95 -0.000124549 8.56584 5.71053 
96 1.42753 9.9935 7.13819 
125 -0.000124549 11.4212 5.71053 
545 2.85519 8.56584 5.71053 
575 2.85519 11.4212 5.71053 
544 4.28284 9.9935 4.28288 
546 4.28284 9.9935 7.13819 
994 7.13816 9.9935 4.28288 
995 5.7105 8.56584 5.71053 
996 7.13816 9.9935 7.13819 
1025 5.7105 11.4212 5.71053 
1444 9.99347 9.9935 4.28288 
1445 8.56581 8.56584 5.71053 
1446 9.99347 9.9935 7.13819 
1475 8.56581 11.4212 5.71053 
1895 11.4211 8.56584 5.71053 
1925 11.4211 11.4212 5.71053 
1894 12.8488 9.9935 4.28288 
1896 12.8488 9.9935 7.13819 
2344 15.7041 9.9935 4.28288 
2345 14.2764 8.56584 5.71053 
2346 15.7041 9.9935 7.13819 
2375 14.2764 11.4212 5.71053 
2794 18.5594 9.9935 4.28288 
2795 17.1318 8.56584 5.71053 
2796 18.5594 9.9935 7.13819 
2825 17.1318 11.4212 5.71053 
3245 19.9871 8.56584 5.71053 
3275 19.9871 11.4212 5.71053 
3244 21.4147 9.9935 4.28288 
3246 21.4147 9.9935 7.13819 
3694 24.27 9.9935 4.28288 
3695 22.8424 8.56584 5.71053 
3696 24.27 9.9935 7.13819 
3725 22.8424 11.4212 5.71053 
4144 27.1253 9.9935 4.28288 
4145 25.6977 8.56584 5.71053 
4146 27.1253 9.9935 7.13819 
4175 25.6977 11.4212 5.71053 
124 1.42753 12.8488 4.28288 
126 1.42753 12.8488 7.13819 
155 -0.000124549 14.2765 5.71053 
605 2.85519 14.2765 5.71053 
574 4.28284 12.8488 4.28288 
576 4.28284 12.8488 7.13819 
1024 7.13816 12.8488 4.28288 
1026 7.13816 12.8488 7.13819 
1055 5.7105 14.2765 5.71053 
1474 9.99347 12.8488 4.28288 
1476 9.99347 12.8488 7.13819 
1505 8.56581 14.2765 5.71053 
1955 11.4211 14.2765 5.71053 
1924 12.8488 12.8488 4.28288 
1926 12.8488 12.8488 7.13819 
2374 15.7041 12.8488 4.28288 
2376 15.7041 12.8488 7.13819 
2405 14.2764 14.2765 5.71053 
2824 18.5594 12.8488 4.28288 
2826 18.5594 12.8488 7.13819 
2855 17.1318 14.2765 5.71053 
3305 19.9871 14.2765 5.71053 
3274 21.4147 12.8488 4.28288 
3276 21.4147 12.8488 7.13819 
3724 24.27 12.8488 4.28288 
3726 24.27 12.8488 7.13819 
3755 22.8424 14.2765 5.71053 
4174 27.1253 12.8488 4.28288 
4176 27.1253 12.8488 7.13819 
4205 25.6977 14.2765 5.71053 
154 1.42753 15.7041 4.28288 
156 1.42753 15.7041 7.13819 
184 1.42753 18.5594 4.28288 
185 -0.000124549 17.1318 5.71053 
186 1.42753 18.5594 7.13819 
635 2.85519 17.1318 5.71053 
604 4.28284 15.7041 4.28288 
606 4.28284 15.7041 7.13819 
634 4.28284 18.5594 4.28288 
636 4.28284 18.5594 7.13819 
1054 7.13816 15.7041 4.28288 
1056 7.13816 15.7041 7.13819 
1084 7.13816 18.5594 4.28288 
1085 5.7105 17.1318 5.71053 
1086 7.13816 18.5594 7.13819 
1504 9.99347 15.7041 4.28288 
1506 9.99347 15.7041 7.13819 
1534 9.99347 18.5594 4.28288 
1535 8.56581 17.1318 5.71053 
1536 9.99347 18.5594 7.13819 
1985 11.4211 17.1318 5.71053 
1954 12.8488 15.7041 4.28288 
1956 12.8488 15.7041 7.13819 
1984 12.8488 18.5594 4.28288 
1986 12.8488 18.5594 7.13819 
2404 15.7041 15.7041 4.28288 
2406 15.7041 15.7041 7.13819 
2434 15.7041 18.5594 4.28288 
2435 14.2764 17.1318 5.71053 
2436 15.7041 18.5594 7.13819 
2854 18.5594 15.7041 4.28288 
2856 18.5594 15.7041 7.13819 
2884 18.5594 18.5594 4.28288 
2885 17.1318 17.1318 5.71053 
2886 18.5594 18.5594 7.13819 
3335 19.9871 17.1318 5.71053 
3304 21.4147 15.7041 4.28288 
3306 21.4147 15.7041 7.13819 
3334 21.4147 18.5594 4.28288 
3336 21.4147 18.5594 7.13819 
3754 24.27 15.7041 4.28288 
3756 24.27 15.7041 7.13819 
3784 24.27 18.5594 4.28288 
3785 22.8424 17.1318 5.71053 
3786 24.27 18.5594 7.13819 
4204 27.1253 15.7041 4.28288 
4206 27.1253 15.7041 7.13819 
4234 27.1253 18.5594 4.28288 
4235 25.6977 17.1318 5.71053 
4236 27.1253 18.5594 7.13819 
214 1.42753 21.4148 4.28288 
215 -0.000124549 19.9871 5.71053 
216 1.42753 21.4148 7.13819 
245 -0.000124549 22.8424 5.71053 
665 2.85519 19.9871 5.71053 
695 2.85519 22.8424 5.71053 
664 4.28284 21.4148 4.28288 
666 4.28284 21.4148 7.13819 
1114 7.13816 21.4148 4.28288 
1115 5.7105 19.9871 5.71053 
1116 7.13816 21.4148 7.13819 
1145 5.7105 22.8424 5.71053 
1564 9.99347 21.4148 4.28288 
1565 8.56581 19.9871 5.71053 
1566 9.99347 21.4148 7.13819 
1595 8.56581 22.8424 5.71053 
2015 11.4211 19.9871 5.71053 
2045 11.4211 22.8424 5.71053 
2014 12.8488 21.4148 4.28288 
2016 12.8488 21.4148 7.13819 
2464 15.7041 21.4148 4.28288 
2465 14.2764 19.9871 5.71053 
2466 15.7041 21.4148 7.13819 
2495 14.2764 22.8424 5.71053 
2914 18.5594 21.4148 4.28288 
2915 17.1318 19.9871 5.71053 
2916 18.5594 21.4148 7.13819 
2945 17.1318 22.8424 5.71053 
3365 19.9871 19.9871 5.71053 
3395 19.9871 22.8424 5.71053 
3364 21.4147 21.4148 4.28288 
3366 21.4147 21.4148 7.13819 
3814 24.27 21.4148 4.28288 
3815 22.8424 19.9871 5.71053 
3816 24.27 21.4148 7.13819 
3845 22.8424 22.8424 5.71053 
4264 27.1253 21.4148 4.28288 
4265 25.6977 19.9871 5.71053 
4266 27.1253 21.4148 7.13819 
4295 25.6977 22.8424 5.71053 
244 1.42753 24.2701 4.28288 
246 1.42753 24.2701 7.13819 
274 1.42753 27.1254 4.28288 
275 -0.000124549 25.6977 5.71053 
276 1.42753 27.1254 7.13819 
725 2.85519 25.6977 5.71053 
694 4.28284 24.2701 4.28288 
696 4.28284 24.2701 7.13819 
724 4.28284 27.1254 4.28288 
726 4.28284 27.1254 7.13819 
1144 7.13816 24.2701 4.28288 
1146 7.13816 24.2701 7.13819 
1174 7.13816 27.1254 4.28288 
1175 5.7105 25.6977 5.71053 
1176 7.13816 27.1254 7.13819 
1594 9.99347 24.2701 4.28288 
1596 9.99347 24.2701 7.13819 
1624 9.99347 27.1254 4.28288 
1625 8.56581 25.6977 5.71053 
1626 9.99347 27.1254 7.13819 
2075 11.4211 25.6977 5.71053 
2044 12.8488 24.2701 4.28288 
2046 12.8488 24.2701 7.13819 
2074 12.8488 27.1254 4.28288 
2076 12.8488 27.1254 7.13819 
2494 15.7041 24.2701 4.28288 
2496 15.7041 24.2701 7.13819 
2524 15.7041 27.1254 4.28288 
2525 14.2764 25.6977 5.71053 
2526 15.7041 27.1254 7.13819 
2944 18.5594 24.2701 4.28288 
2946 18.5594 24.2701 7.13819 
2974 18.5594 27.1254 4.28288 
2975 17.1318 25.6977 5.71053 
2976 18.5594 27.1254 7.13819 
3425 19.9871 25.6977 5.71053 
3394 21.4147 24.2701 4.28288 
3396 21.4147 24.2701 7.13819 
3424 21.4147 27.1254 4.28288 
3426 21.4147 27.1254 7.13819 
3844 24.27 24.2701 4.28288 
3846 24.27 24.2701 7.13819 
3874 24.27 27.1254 4.28288 
3875 22.8424 25.6977 5.71053 
3876 24.27 27.1254 7.13819 
4294 27.1253 24.2701 4.28288 
4296 27.1253 24.2701 7.13819 
4324 27.1253 27.1254 4.28288 
4325 25.6977 25.6977 5.71053 
4326 27.1253 27.1254 7.13819 
304 1.42753 29.9807 4.28288 
305 -0.000124549 28.553 5.71053 
306 1.42753 29.9807 7.13819 
755 2.85519 28.553 5.71053 
754 4.28284 29.9807 4.28288 
756 4.28284 29.9807 7.13819 
1204 7.13816 29.9807 4.28288 
1205 5.7105 28.553 5.71053 
1206 7.13816 29.9807 7.13819 
1654 9.99347 29.9807 4.28288 
1655 8.56581 28.553 5.71053 
1656 9.99347 29.9807 7.13819 
2105 11.4211 28.553 5.71053 
2104 12.8488 29.9807 4.28288 
2106 12.8488 29.9807 7.13819 
2554 15.7041 29.9807 4.28288 
2555 14.2764 28.553 5.71053 
2556 15.7041 29.9807 7.13819 
3004 18.5594 29.9807 4.28288 
3005 17.1318 28.553 5.71053 
3006 18.5594 29.9807 7.13819 
3455 19.9871 28.553 5.71053 
3454 21.4147 29.9807 4.28288 
3456 21.4147 29.9807 7.13819 
3904 24.27 29.9807 4.28288 
3905 22.8424 28.553 5.71053 
3906 24.27 29.9807 7.13819 
4354 27.1253 29.9807 4.28288 
4355 25.6977 28.553 5.71053 
4356 27.1253 29.9807 7.13819 
334 1.42753 32.836 4.28288 
335 -0.000124549 31.4083 5.71053 
336 1.42753 32.836 7.13819 
365 -0.000124549 34.2637 5.71053 
785 2.85519 31.4083 5.71053 
815 2.85519 34.2637 5.71053 
784 4.28284 32.836 4.28288 
786 4.28284 32.836 7.13819 
1234 7.13816 32.836 4.28288 
1235 5.7105 31.4083 5.71053 
1236 7.13816 32.836 7.13819 
1265 5.7105 34.2637 5.71053 
1684 9.99347 32.836 4.28288 
1685 8.56581 31.4083 5.71053 
1686 9.99347 32.836 7.13819 
1715 8.56581 34.2637 5.71053 
2135 11.4211 31.4083 5.71053 
2165 11.4211 34.2637 5.71053 
2134 12.8488 32.836 4.28288 
2136 12.8488 32.836 7.13819 
2584 15.7041 32.836 4.28288 
2585 14.2764 31.4083 5.71053 
2586 15.7041 32.836 7.13819 
2615 14.2764 34.2637 5.71053 
3034 18.5594 32.836 4.28288 
3035 17.1318 31.4083 5.71053 
3036 18.5594 32.836 7.13819 
3065 17.1318 34.2637 5.71053 
3485 19.9871 31.4083 5.71053 
3515 19.9871 34.2637 5.71053 
3484 21.4147 32.836 4.28288 
3486 21.4147 32.836 7.13819 
3934 24.27 32.836 4.28288 
3935 22.8424 31.4083 5.71053 
3936 24.27 32.836 7.13819 
3965 22.8424 34.2637 5.71053 
4384 27.1253 32.836 4.28288 
4385 25.6977 31.4083 5.71053 
4386 27.1253 32.836 7.13819 
4415 25.6977 34.2637 5.71053 
364 1.42753 35.6913 4.28288 
366 1.42753 35.6913 7.13819 
394 1.42753 38.5466 4.28288 
395 -0.000124549 37.119 5.71053 
396 1.42753 38.5466 7.13819 
845 2.85519 37.119 5.71053 
814 4.28284 35.6913 4.28288 
816 4.28284 35.6913 7.13819 
844 4.28284 38.5466 4.28288 
846 4.28284 38.5466 7.13819 
1264 7.13816 35.6913 4.28288 
1266 7.13816 35.6913 7.13819 
1294 7.13816 38.5466 4.28288 
1295 5.7105 37.119 5.71053 
1296 7.13816 38.5466 7.13819 
1714 9.99347 35.6913 4.28288 
1716 9.99347 35.6913 7.13819 
1744 9.99347 38.5466 4.28288 
1745 8.56581 37.119 5.71053 
1746 9.99347 38.5466 7.13819 
2195 11.4211 37.119 5.71053 
2164 12.8488 35.6913 4.28288 
2166 12.8488 35.6913 7.13819 
2194 12.8488 38.5466 4.28288 
2196 12.8488 38.5466 7.13819 
2614 15.7041 35.6913 4.28288 
2616 15.7041 35.6913 7.13819 
2644 15.7041 38.5466 4.28288 
2645 14.2764 37.119 5.71053 
2646 15.7041 38.5466 7.13819 
3064 18.5594 35.6913 4.28288 
3066 18.5594 35.6913 7.13819 
3094 18.5594 38.5466 4.28288 
3095 17.1318 37.119 5.71053 
3096 18.5594 38.5466 7.13819 
3545 19.9871 37.119 5.71053 
3514 21.4147 35.6913 4.28288 
3516 21.4147 35.6913 7.13819 
3544 21.4147 38.5466 4.28288 
3546 21.4147 38.5466 7.13819 
3964 24.27 35.6913 4.28288 
3966 24.27 35.6913 7.13819 
3994 24.27 38.5466 4.28288 
3995 22.8424 37.119 5.71053 
3996 24.27 38.5466 7.13819 
4414 27.1253 35.6913 4.28288 
4416 27.1253 35.6913 7.13819 
4444 27.1253 38.5466 4.28288 
4445 25.6977 37.119 5.71053 
4446 27.1253 38.5466 7.13819 
424 1.42753 41.4019 4.28288 
425 -0.000124549 39.9743 5.71053 
426 1.42753 41.4019 7.13819 
875 2.85519 39.9743 5.71053 
874 4.28284 41.4019 4.28288 
876 4.28284 41.4019 7.13819 
1324 7.13816 41.4019 4.28288 
1325 5.7105 39.9743 5.71053 
1326 7.13816 41.4019 7.13819 
1774 9.99347 41.4019 4.28288 
1775 8.56581 39.9743 5.71053 
1776 9.99347 41.4019 7.13819 
2225 11.4211 39.9743 5.71053 
2224 12.8488 41.4019 4.28288 
2226 12.8488 41.4019 7.13819 
2674 15.7041 41.4019 4.28288 
2675 14.2764 39.9743 5.71053 
2676 15.7041 41.4019 7.13819 
3124 18.5594 41.4019 4.28288 
3125 17.1318 39.9743 5.71053 
3126 18.5594 41.4019 7.13819 
3575 19.9871 39.9743 5.71053 
3574 21.4147 41.4019 4.28288 
3576 21.4147 41.4019 7.13819 
4024 24.27 41.4019 4.28288 
4025 22.8424 39.9743 5.71053 
4026 24.27 41.4019 7.13819 
4474 27.1253 41.4019 4.28288 
4475 25.6977 39.9743 5.71053 
4476 27.1253 41.4019 7.13819 
7 -0.000124549 -9.3412e-05 8.56584 
8 1.42753 1.42756 9.9935 
9 -0.000124549 -9.3412e-05 11.4212 
37 -0.000124549 2.85522 8.56584 
39 -0.000124549 2.85522 11.4212 
457 2.85519 -9.3412e-05 8.56584 
459 2.85519 -9.3412e-05 11.4212 
487 2.85519 2.85522 8.56584 
489 2.85519 2.85522 11.4212 
458 4.28284 1.42756 9.9935 
907 5.7105 -9.3412e-05 8.56584 
908 7.13816 1.42756 9.9935 
909 5.7105 -9.3412e-05 11.4212 
937 5.7105 2.85522 8.56584 
939 5.7105 2.85522 11.4212 
1357 8.56581 -9.3412e-05 8.56584 
1358 9.99347 1.42756 9.9935 
1359 8.56581 -9.3412e-05 11.4212 
1387 8.56581 2.85522 8.56584 
1389 8.56581 2.85522 11.4212 
1807 11.4211 -9.3412e-05 8.56584 
1809 11.4211 -9.3412e-05 11.4212 
1837 11.4211 2.85522 8.56584 
1839 11.4211 2.85522 11.4212 
1808 12.8488 1.42756 9.9935 
2257 14.2764 -9.3412e-05 8.56584 
2258 15.7041 1.42756 9.9935 
2259 14.2764 -9.3412e-05 11.4212 
2287 14.2764 2.85522 8.56584 
2289 14.2764 2.85522 11.4212 
2707 17.1318 -9.3412e-05 8.56584 
2708 18.5594 1.42756 9.9935 
2709 17.1318 -9.3412e-05 11.4212 
2737 17.1318 2.85522 8.56584 
2739 17.1318 2.85522 11.4212 
3157 19.9871 -9.3412e-05 8.56584 
3159 19.9871 -9.3412e-05 11.4212 
3187 19.9871 2.85522 8.56584 
3189 19.9871 2.85522 11.4212 
3158 21.4147 1.42756 9.9935 
3607 22.8424 -9.3412e-05 8.56584 
3608 24.27 1.42756 9.9935 
3609 22.8424 -9.3412e-05 11.4212 
3637 22.8424 2.85522 8.56584 
3639 22.8424 2.85522 11.4212 
4057 25.6977 -9.3412e-05 8.56584 
4058 27.1253 1.42756 9.9935 
4059 25.6977 -9.3412e-05 11.4212 
4087 25.6977 2.85522 8.56584 
4089 25.6977 2.85522 11.4212 
38 1.42753 4.28288 9.9935 
67 -0.000124549 5.71053 8.56584 
68 1.42753 7.13819 9.9935 
69 -0.000124549 5.71053 11.4212 
517 2.85519 5.71053 8.56584 
519 2.85519 5.71053 11.4212 
488 4.28284 4.28288 9.9935 
518 4.28284 7.13819 9.9935 
938 7.13816 4.28288 9.9935 
967 5.7105 5.71053 8.56584 
968 7.13816 7.13819 9.9935 
969 5.7105 5.71053 11.4212 
1388 9.99347 4.28288 9.9935 
1417 8.56581 5.71053 8.56584 
1418 9.99347 7.13819 9.9935 
1419 8.56581 5.71053 11.4212 
1867 11.4211 5.71053 8.56584 
1869 11.4211 5.71053 11.4212 
1838 12.8488 4.28288 9.9935 
1868 12.8488 7.13819 9.9935 
2288 15.7041 4.28288 9.9935 
2317 14.2764 5.71053 8.56584 
2318 15.7041 7.13819 9.9935 
2319 14.2764 5.71053 11.4212 
2738 18.5594 4.28288 9.9935 