ITEM: TIMESTEP
0
ITEM: NUMBER OF ATOMS
3000
ITEM: BOX BOUNDS pp pp pp
0.0000000000000000e+00 3.1000000000000000e+01
0.0000000000000000e+00 3.1000000000000000e+01
0.0000000000000000e+00 3.1000000000000000e+01
ITEM: ATOMS id type x y z 
3 1 1.55 0.79305 2.08588 
303 1 1.55 0.79305 5.18588 
603 1 1.55 0.79305 8.28588 
33 1 1.55 3.89305 2.08588 
333 1 1.55 3.89305 5.18588 
633 1 1.55 3.89305 8.28588 
63 1 1.55 6.99305 2.08588 
363 1 1.55 6.99305 5.18588 
663 1 1.55 6.99305 8.28588 
6 1 4.65 0.79305 2.08588 
306 1 4.65 0.79305 5.18588 
606 1 4.65 0.79305 8.28588 
36 1 4.65 3.89305 2.08588 
336 1 4.65 3.89305 5.18588 
636 1 4.65 3.89305 8.28588 
66 1 4.65 6.99305 2.08588 
366 1 4.65 6.99305 5.18588 
666 1 4.65 6.99305 8.28588 
1 2 1.55 1.55 1.5 
301 2 1.55 1.55 4.6 
601 2 1.55 1.55 7.7 
31 2 1.55 4.65 1.5 
331 2 1.55 4.65 4.6 
631 2 1.55 4.65 7.7 
4 2 4.65 1.55 1.5 
304 2 4.65 1.55 4.6 
604 2 4.65 1.55 7.7 
34 2 4.65 4.65 1.5 
334 2 4.65 4.65 4.6 
634 2 4.65 4.65 7.7 
2 1 1.55 2.30695 2.08588 
302 1 1.55 2.30695 5.18588 
602 1 1.55 2.30695 8.28588 
32 1 1.55 5.40695 2.08588 
332 1 1.55 5.40695 5.18588 
632 1 1.55 5.40695 8.28588 
5 1 4.65 2.30695 2.08588 
305 1 4.65 2.30695 5.18588 
605 1 4.65 2.30695 8.28588 
35 1 4.65 5.40695 2.08588 
335 1 4.65 5.40695 5.18588 
635 1 4.65 5.40695 8.28588 
9 1 7.75 0.79305 2.08588 
309 1 7.75 0.79305 5.18588 
609 1 7.75 0.79305 8.28588 
39 1 7.75 3.89305 2.08588 
339 1 7.75 3.89305 5.18588 
639 1 7.75 3.89305 8.28588 
69 1 7.75 6.99305 2.08588 
369 1 7.75 6.99305 5.18588 
669 1 7.75 6.99305 8.28588 
12 1 10.85 0.79305 2.08588 
312 1 10.85 0.79305 5.18588 
612 1 10.85 0.79305 8.28588 
42 1 10.85 3.89305 2.08588 
342 1 10.85 3.89305 5.18588 
642 1 10.85 3.89305 8.28588 
72 1 10.85 6.99305 2.08588 
372 1 10.85 6.99305 5.18588 
672 1 10.85 6.99305 8.28588 
15 1 13.95 0.79305 2.08588 
315 1 13.95 0.79305 5.18588 
615 1 13.95 0.79305 8.28588 
45 1 13.95 3.89305 2.08588 
345 1 13.95 3.89305 5.18588 
645 1 13.95 3.89305 8.28588 
75 1 13.95 6.99305 2.08588 
375 1 13.95 6.99305 5.18588 
675 1 13.95 6.99305 8.28588 
7 2 7.75 1.55 1.5 
307 2 7.75 1.55 4.6 
607 2 7.75 1.55 7.7 
37 2 7.75 4.65 1.5 
337 2 7.75 4.65 4.6 
637 2 7.75 4.65 7.7 
10 2 10.85 1.55 1.5 
310 2 10.85 1.55 4.6 
610 2 10.85 1.55 7.7 
40 2 10.85 4.65 1.5 
340 2 10.85 4.65 4.6 
640 2 10.85 4.65 7.7 
13 2 13.95 1.55 1.5 
313 2 13.95 1.55 4.6 
613 2 13.95 1.55 7.7 
43 2 13.95 4.65 1.5 
343 2 13.95 4.65 4.6 
643 2 13.95 4.65 7.7 
8 1 7.75 2.30695 2.08588 
308 1 7.75 2.30695 5.18588 
608 1 7.75 2.30695 8.28588 
38 1 7.75 5.40695 2.08588 
338 1 7.75 5.40695 5.18588 
638 1 7.75 5.40695 8.28588 
11 1 10.85 2.30695 2.08588 
311 1 10.85 2.30695 5.18588 
611 1 10.85 2.30695 8.28588 
41 1 10.85 5.40695 2.08588 
341 1 10.85 5.40695 5.18588 
641 1 10.85 5.40695 8.28588 
14 1 13.95 2.30695 2.08588 
314 1 13.95 2.30695 5.18588 
614 1 13.95 2.30695 8.28588 
44 1 13.95 5.40695 2.08588 
344 1 13.95 5.40695 5.18588 
644 1 13.95 5.40695 8.28588 
93 1 1.55 10.093 2.08588 
393 1 1.55 10.093 5.18588 
693 1 1.55 10.093 8.28588 
123 1 1.55 13.193 2.08588 
423 1 1.55 13.193 5.18588 
723 1 1.55 13.193 8.28588 
96 1 4.65 10.093 2.08588 
396 1 4.65 10.093 5.18588 
696 1 4.65 10.093 8.28588 
126 1 4.65 13.193 2.08588 
426 1 4.65 13.193 5.18588 
726 1 4.65 13.193 8.28588 
61 2 1.55 7.75 1.5 
361 2 1.55 7.75 4.6 
661 2 1.55 7.75 7.7 
91 2 1.55 10.85 1.5 
391 2 1.55 10.85 4.6 
691 2 1.55 10.85 7.7 
121 2 1.55 13.95 1.5 
421 2 1.55 13.95 4.6 
721 2 1.55 13.95 7.7 
64 2 4.65 7.75 1.5 
364 2 4.65 7.75 4.6 
664 2 4.65 7.75 7.7 
94 2 4.65 10.85 1.5 
394 2 4.65 10.85 4.6 
694 2 4.65 10.85 7.7 
124 2 4.65 13.95 1.5 
424 2 4.65 13.95 4.6 
724 2 4.65 13.95 7.7 
62 1 1.55 8.50695 2.08588 
362 1 1.55 8.50695 5.18588 
662 1 1.55 8.50695 8.28588 
92 1 1.55 11.607 2.08588 
392 1 1.55 11.607 5.18588 
692 1 1.55 11.607 8.28588 
122 1 1.55 14.707 2.08588 
422 1 1.55 14.707 5.18588 
722 1 1.55 14.707 8.28588 
65 1 4.65 8.50695 2.08588 
365 1 4.65 8.50695 5.18588 
665 1 4.65 8.50695 8.28588 
95 1 4.65 11.607 2.08588 
395 1 4.65 11.607 5.18588 
695 1 4.65 11.607 8.28588 
125 1 4.65 14.707 2.08588 
425 1 4.65 14.707 5.18588 
725 1 4.65 14.707 8.28588 
99 1 7.75 10.093 2.08588 
399 1 7.75 10.093 5.18588 
699 1 7.75 10.093 8.28588 
129 1 7.75 13.193 2.08588 
429 1 7.75 13.193 5.18588 
729 1 7.75 13.193 8.28588 
102 1 10.85 10.093 2.08588 
402 1 10.85 10.093 5.18588 
702 1 10.85 10.093 8.28588 
132 1 10.85 13.193 2.08588 
432 1 10.85 13.193 5.18588 
732 1 10.85 13.193 8.28588 
105 1 13.95 10.093 2.08588 
405 1 13.95 10.093 5.18588 
705 1 13.95 10.093 8.28588 
135 1 13.95 13.193 2.08588 
435 1 13.95 13.193 5.18588 
735 1 13.95 13.193 8.28588 
67 2 7.75 7.75 1.5 
367 2 7.75 7.75 4.6 
667 2 7.75 7.75 7.7 
97 2 7.75 10.85 1.5 
397 2 7.75 10.85 4.6 
697 2 7.75 10.85 7.7 
127 2 7.75 13.95 1.5 
427 2 7.75 13.95 4.6 
727 2 7.75 13.95 7.7 
70 2 10.85 7.75 1.5 
370 2 10.85 7.75 4.6 
670 2 10.85 7.75 7.7 
100 2 10.85 10.85 1.5 
400 2 10.85 10.85 4.6 
700 2 10.85 10.85 7.7 
130 2 10.85 13.95 1.5 
430 2 10.85 13.95 4.6 
730 2 10.85 13.95 7.7 
73 2 13.95 7.75 1.5 
373 2 13.95 7.75 4.6 
673 2 13.95 7.75 7.7 
103 2 13.95 10.85 1.5 
403 2 13.95 10.85 4.6 
703 2 13.95 10.85 7.7 
133 2 13.95 13.95 1.5 
433 2 13.95 13.95 4.6 
733 2 13.95 13.95 7.7 
68 1 7.75 8.50695 2.08588 
368 1 7.75 8.50695 5.18588 
668 1 7.75 8.50695 8.28588 
98 1 7.75 11.607 2.08588 
398 1 7.75 11.607 5.18588 
698 1 7.75 11.607 8.28588 
128 1 7.75 14.707 2.08588 
428 1 7.75 14.707 5.18588 
728 1 7.75 14.707 8.28588 
71 1 10.85 8.50695 2.08588 
371 1 10.85 8.50695 5.18588 
671 1 10.85 8.50695 8.28588 
101 1 10.85 11.607 2.08588 
401 1 10.85 11.607 5.18588 
701 1 10.85 11.607 8.28588 
131 1 10.85 14.707 2.08588 
431 1 10.85 14.707 5.18588 
731 1 10.85 14.707 8.28588 
74 1 13.95 8.50695 2.08588 
374 1 13.95 8.50695 5.18588 
674 1 13.95 8.50695 8.28588 
104 1 13.95 11.607 2.08588 
404 1 13.95 11.607 5.18588 
704 1 13.95 11.607 8.28588 
134 1 13.95 14.707 2.08588 
434 1 13.95 14.707 5.18588 
734 1 13.95 14.707 8.28588 
903 1 1.55 0.79305 11.3859 
1203 1 1.55 0.79305 14.4859 
1503 1 1.55 0.79305 17.5859 
933 1 1.55 3.89305 11.3859 
1233 1 1.55 3.89305 14.4859 
1533 1 1.55 3.89305 17.5859 
963 1 1.55 6.99305 11.3859 
1263 1 1.55 6.99305 14.4859 
1563 1 1.55 6.99305 17.5859 
906 1 4.65 0.79305 11.3859 
1206 1 4.65 0.79305 14.4859 
1506 1 4.65 0.79305 17.5859 
936 1 4.65 3.89305 11.3859 
1236 1 4.65 3.89305 14.4859 
1536 1 4.65 3.89305 17.5859 
966 1 4.65 6.99305 11.3859 
1266 1 4.65 6.99305 14.4859 
1566 1 4.65 6.99305 17.5859 
901 2 1.55 1.55 10.8 
1201 2 1.55 1.55 13.9 
1501 2 1.55 1.55 17 
1801 2 1.55 1.55 20.1 
931 2 1.55 4.65 10.8 
1231 2 1.55 4.65 13.9 
1531 2 1.55 4.65 17 
1831 2 1.55 4.65 20.1 
904 2 4.65 1.55 10.8 
1204 2 4.65 1.55 13.9 
1504 2 4.65 1.55 17 
1804 2 4.65 1.55 20.1 
934 2 4.65 4.65 10.8 
1234 2 4.65 4.65 13.9 
1534 2 4.65 4.65 17 
1834 2 4.65 4.65 20.1 
902 1 1.55 2.30695 11.3859 
1202 1 1.55 2.30695 14.4859 
1502 1 1.55 2.30695 17.5859 
932 1 1.55 5.40695 11.3859 
1232 1 1.55 5.40695 14.4859 
1532 1 1.55 5.40695 17.5859 
905 1 4.65 2.30695 11.3859 
1205 1 4.65 2.30695 14.4859 
1505 1 4.65 2.30695 17.5859 
935 1 4.65 5.40695 11.3859 
1235 1 4.65 5.40695 14.4859 
1535 1 4.65 5.40695 17.5859 
909 1 7.75 0.79305 11.3859 
1209 1 7.75 0.79305 14.4859 
1509 1 7.75 0.79305 17.5859 
939 1 7.75 3.89305 11.3859 
1239 1 7.75 3.89305 14.4859 
1539 1 7.75 3.89305 17.5859 
969 1 7.75 6.99305 11.3859 
1269 1 7.75 6.99305 14.4859 
1569 1 7.75 6.99305 17.5859 
912 1 10.85 0.79305 11.3859 
1212 1 10.85 0.79305 14.4859 
1512 1 10.85 0.79305 17.5859 
942 1 10.85 3.89305 11.3859 
1242 1 10.85 3.89305 14.4859 
1542 1 10.85 3.89305 17.5859 
972 1 10.85 6.99305 11.3859 
1272 1 10.85 6.99305 14.4859 
1572 1 10.85 6.99305 17.5859 
915 1 13.95 0.79305 11.3859 
1215 1 13.95 0.79305 14.4859 
1515 1 13.95 0.79305 17.5859 
945 1 13.95 3.89305 11.3859 
1245 1 13.95 3.89305 14.4859 
1545 1 13.95 3.89305 17.5859 
975 1 13.95 6.99305 11.3859 
1275 1 13.95 6.99305 14.4859 
1575 1 13.95 6.99305 17.5859 
907 2 7.75 1.55 10.8 
1207 2 7.75 1.55 13.9 
1507 2 7.75 1.55 17 
1807 2 7.75 1.55 20.1 
937 2 7.75 4.65 10.8 
1237 2 7.75 4.65 13.9 
1537 2 7.75 4.65 17 
1837 2 7.75 4.65 20.1 
910 2 10.85 1.55 10.8 
1210 2 10.85 1.55 13.9 
1510 2 10.85 1.55 17 
1810 2 10.85 1.55 20.1 
940 2 10.85 4.65 10.8 
1240 2 10.85 4.65 13.9 
1540 2 10.85 4.65 17 
1840 2 10.85 4.65 20.1 
913 2 13.95 1.55 10.8 
1213 2 13.95 1.55 13.9 
1513 2 13.95 1.55 17 
1813 2 13.95 1.55 20.1 
943 2 13.95 4.65 10.8 
1243 2 13.95 4.65 13.9 
1543 2 13.95 4.65 17 
1843 2 13.95 4.65 20.1 
908 1 7.75 2.30695 11.3859 
1208 1 7.75 2.30695 14.4859 
1508 1 7.75 2.30695 17.5859 
938 1 7.75 5.40695 11.3859 
1238 1 7.75 5.40695 14.4859 
1538 1 7.75 5.40695 17.5859 
911 1 10.85 2.30695 11.3859 
1211 1 10.85 2.30695 14.4859 
1511 1 10.85 2.30695 17.5859 
941 1 10.85 5.40695 11.3859 
1241 1 10.85 5.40695 14.4859 
1541 1 10.85 5.40695 17.5859 
914 1 13.95 2.30695 11.3859 
1214 1 13.95 2.30695 14.4859 
1514 1 13.95 2.30695 17.5859 
944 1 13.95 5.40695 11.3859 
1244 1 13.95 5.40695 14.4859 
1544 1 13.95 5.40695 17.5859 
993 1 1.55 10.093 11.3859 
1293 1 1.55 10.093 14.4859 
1593 1 1.55 10.093 17.5859 
1023 1 1.55 13.193 11.3859 
1323 1 1.55 13.193 14.4859 
1623 1 1.55 13.193 17.5859 
996 1 4.65 10.093 11.3859 
1296 1 4.65 10.093 14.4859 
1596 1 4.65 10.093 17.5859 
1026 1 4.65 13.193 11.3859 
1326 1 4.65 13.193 14.4859 
1626 1 4.65 13.193 17.5859 
961 2 1.55 7.75 10.8 
1261 2 1.55 7.75 13.9 
1561 2 1.55 7.75 17 
1861 2 1.55 7.75 20.1 
991 2 1.55 10.85 10.8 
1291 2 1.55 10.85 13.9 
1591 2 1.55 10.85 17 
1891 2 1.55 10.85 20.1 
1021 2 1.55 13.95 10.8 
1321 2 1.55 13.95 13.9 
1621 2 1.55 13.95 17 
1921 2 1.55 13.95 20.1 
964 2 4.65 7.75 10.8 
1264 2 4.65 7.75 13.9 
1564 2 4.65 7.75 17 
1864 2 4.65 7.75 20.1 
994 2 4.65 10.85 10.8 
1294 2 4.65 10.85 13.9 
1594 2 4.65 10.85 17 
1894 2 4.65 10.85 20.1 
1024 2 4.65 13.95 10.8 
1324 2 4.65 13.95 13.9 
1624 2 4.65 13.95 17 
1924 2 4.65 13.95 20.1 
962 1 1.55 8.50695 11.3859 
1262 1 1.55 8.50695 14.4859 
1562 1 1.55 8.50695 17.5859 
992 1 1.55 11.607 11.3859 
1292 1 1.55 11.607 14.4859 
1592 1 1.55 11.607 17.5859 
1022 1 1.55 14.707 11.3859 
1322 1 1.55 14.707 14.4859 
1622 1 1.55 14.707 17.5859 
965 1 4.65 8.50695 11.3859 
1265 1 4.65 8.50695 14.4859 
1565 1 4.65 8.50695 17.5859 
995 1 4.65 11.607 11.3859 
1295 1 4.65 11.607 14.4859 
1595 1 4.65 11.607 17.5859 
1025 1 4.65 14.707 11.3859 
1325 1 4.65 14.707 14.4859 
1625 1 4.65 14.707 17.5859 
999 1 7.75 10.093 11.3859 
1299 1 7.75 10.093 14.4859 
1599 1 7.75 10.093 17.5859 
1029 1 7.75 13.193 11.3859 
1329 1 7.75 13.193 14.4859 
1629 1 7.75 13.193 17.5859 
1002 1 10.85 10.093 11.3859 
1302 1 10.85 10.093 14.4859 
1602 1 10.85 10.093 17.5859 
1032 1 10.85 13.193 11.3859 
1332 1 10.85 13.193 14.4859 
1632 1 10.85 13.193 17.5859 
1005 1 13.95 10.093 11.3859 
1305 1 13.95 10.093 14.4859 
1605 1 13.95 10.093 17.5859 
1035 1 13.95 13.193 11.3859 
1335 1 13.95 13.193 14.4859 
1635 1 13.95 13.193 17.5859 
967 2 7.75 7.75 10.8 
1267 2 7.75 7.75 13.9 
1567 2 7.75 7.75 17 
1867 2 7.75 7.75 20.1 
997 2 7.75 10.85 10.8 
1297 2 7.75 10.85 13.9 
1597 2 7.75 10.85 17 
1897 2 7.75 10.85 20.1 
1027 2 7.75 13.95 10.8 
1327 2 7.75 13.95 13.9 
1627 2 7.75 13.95 17 
1927 2 7.75 13.95 20.1 
970 2 10.85 7.75 10.8 
1270 2 10.85 7.75 13.9 
1570 2 10.85 7.75 17 
1870 2 10.85 7.75 20.1 
1000 2 10.85 10.85 10.8 
1300 2 10.85 10.85 13.9 
1600 2 10.85 10.85 17 
1900 2 10.85 10.85 20.1 
1030 2 10.85 13.95 10.8 
1330 2 10.85 13.95 13.9 
1630 2 10.85 13.95 17 
1930 2 10.85 13.95 20.1 
973 2 13.95 7.75 10.8 
1273 2 13.95 7.75 13.9 
1573 2 13.95 7.75 17 
1873 2 13.95 7.75 20.1 
1003 2 13.95 10.85 10.8 
1303 2 13.95 10.85 13.9 
1603 2 13.95 10.85 17 
1903 2 13.95 10.85 20.1 
1033 2 13.95 13.95 10.8 
1333 2 13.95 13.95 13.9 
1633 2 13.95 13.95 17 
1933 2 13.95 13.95 20.1 
968 1 7.75 8.50695 11.3859 
1268 1 7.75 8.50695 14.4859 
1568 1 7.75 8.50695 17.5859 
998 1 7.75 11.607 11.3859 
1298 1 7.75 11.607 14.4859 
1598 1 7.75 11.607 17.5859 
1028 1 7.75 14.707 11.3859 
1328 1 7.75 14.707 14.4859 
1628 1 7.75 14.707 17.5859 
971 1 10.85 8.50695 11.3859 
1271 1 10.85 8.50695 14.4859 
1571 1 10.85 8.50695 17.5859 
1001 1 10.85 11.607 11.3859 
1301 1 10.85 11.607 14.4859 
1601 1 10.85 11.607 17.5859 
1031 1 10.85 14.707 11.3859 
1331 1 10.85 14.707 14.4859 
1631 1 10.85 14.707 17.5859 
974 1 13.95 8.50695 11.3859 
1274 1 13.95 8.50695 14.4859 
1574 1 13.95 8.50695 17.5859 
1004 1 13.95 11.607 11.3859 
1304 1 13.95 11.607 14.4859 
1604 1 13.95 11.607 17.5859 
1034 1 13.95 14.707 11.3859 
1334 1 13.95 14.707 14.4859 
1634 1 13.95 14.707 17.5859 
1803 1 1.55 0.79305 20.6859 
2103 1 1.55 0.79305 23.7859 
2403 1 1.55 0.79305 26.8859 
2703 1 1.55 0.79305 29.9859 
1833 1 1.55 3.89305 20.6859 
2133 1 1.55 3.89305 23.7859 
2433 1 1.55 3.89305 26.8859 
2733 1 1.55 3.89305 29.9859 
1863 1 1.55 6.99305 20.6859 
2163 1 1.55 6.99305 23.7859 
2463 1 1.55 6.99305 26.8859 
2763 1 1.55 6.99305 29.9859 
1806 1 4.65 0.79305 20.6859 
2106 1 4.65 0.79305 23.7859 
2406 1 4.65 0.79305 26.8859 
2706 1 4.65 0.79305 29.9859 
1836 1 4.65 3.89305 20.6859 
2136 1 4.65 3.89305 23.7859 
2436 1 4.65 3.89305 26.8859 
2736 1 4.65 3.89305 29.9859 
1866 1 4.65 6.99305 20.6859 
2166 1 4.65 6.99305 23.7859 
2466 1 4.65 6.99305 26.8859 
2766 1 4.65 6.99305 29.9859 
2101 2 1.55 1.55 23.2 
2401 2 1.55 1.55 26.3 
2701 2 1.55 1.55 29.4 
2131 2 1.55 4.65 23.2 
2431 2 1.55 4.65 26.3 
2731 2 1.55 4.65 29.4 
2104 2 4.65 1.55 23.2 
2404 2 4.65 1.55 26.3 
2704 2 4.65 1.55 29.4 
2134 2 4.65 4.65 23.2 
2434 2 4.65 4.65 26.3 
2734 2 4.65 4.65 29.4 
1802 1 1.55 2.30695 20.6859 
2102 1 1.55 2.30695 23.7859 
2402 1 1.55 2.30695 26.8859 
2702 1 1.55 2.30695 29.9859 
1832 1 1.55 5.40695 20.6859 
2132 1 1.55 5.40695 23.7859 
2432 1 1.55 5.40695 26.8859 
2732 1 1.55 5.40695 29.9859 
1805 1 4.65 2.30695 20.6859 
2105 1 4.65 2.30695 23.7859 
2405 1 4.65 2.30695 26.8859 
2705 1 4.65 2.30695 29.9859 
1835 1 4.65 5.40695 20.6859 
2135 1 4.65 5.40695 23.7859 
2435 1 4.65 5.40695 26.8859 
2735 1 4.65 5.40695 29.9859 
1809 1 7.75 0.79305 20.6859 
2109 1 7.75 0.79305 23.7859 
2409 1 7.75 0.79305 26.8859 
2709 1 7.75 0.79305 29.9859 
1839 1 7.75 3.89305 20.6859 
2139 1 7.75 3.89305 23.7859 
2439 1 7.75 3.89305 26.8859 
2739 1 7.75 3.89305 29.9859 
1869 1 7.75 6.99305 20.6859 
2169 1 7.75 6.99305 23.7859 
2469 1 7.75 6.99305 26.8859 
2769 1 7.75 6.99305 29.9859 
1812 1 10.85 0.79305 20.6859 
2112 1 10.85 0.79305 23.7859 
2412 1 10.85 0.79305 26.8859 
2712 1 10.85 0.79305 29.9859 
1842 1 10.85 3.89305 20.6859 
2142 1 10.85 3.89305 23.7859 
2442 1 10.85 3.89305 26.8859 
2742 1 10.85 3.89305 29.9859 
1872 1 10.85 6.99305 20.6859 
2172 1 10.85 6.99305 23.7859 
2472 1 10.85 6.99305 26.8859 
2772 1 10.85 6.99305 29.9859 
1815 1 13.95 0.79305 20.6859 
2115 1 13.95 0.79305 23.7859 
2415 1 13.95 0.79305 26.8859 
2715 1 13.95 0.79305 29.9859 
1845 1 13.95 3.89305 20.6859 
2145 1 13.95 3.89305 23.7859 
2445 1 13.95 3.89305 26.8859 
2745 1 13.95 3.89305 29.9859 
1875 1 13.95 6.99305 20.6859 
2175 1 13.95 6.99305 23.7859 
2475 1 13.95 6.99305 26.8859 
2775 1 13.95 6.99305 29.9859 
2107 2 7.75 1.55 23.2 
2407 2 7.75 1.55 26.3 
2707 2 7.75 1.55 29.4 
2137 2 7.75 4.65 23.2 
2437 2 7.75 4.65 26.3 
2737 2 7.75 4.65 29.4 
2110 2 10.85 1.55 23.2 
2410 2 10.85 1.55 26.3 
2710 2 10.85 1.55 29.4 
2140 2 10.85 4.65 23.2 
2440 2 10.85 4.65 26.3 
2740 2 10.85 4.65 29.4 
2113 2 13.95 1.55 23.2 
2413 2 13.95 1.55 26.3 
2713 2 13.95 1.55 29.4 
2143 2 13.95 4.65 23.2 
2443 2 13.95 4.65 26.3 
2743 2 13.95 4.65 29.4 
1808 1 7.75 2.30695 20.6859 
2108 1 7.75 2.30695 23.7859 
2408 1 7.75 2.30695 26.8859 
2708 1 7.75 2.30695 29.9859 
1838 1 7.75 5.40695 20.6859 
2138 1 7.75 5.40695 23.7859 
2438 1 7.75 5.40695 26.8859 
2738 1 7.75 5.40695 29.9859 
1811 1 10.85 2.30695 20.6859 
2111 1 10.85 2.30695 23.7859 
2411 1 10.85 2.30695 26.8859 
2711 1 10.85 2.30695 29.9859 
1841 1 10.85 5.40695 20.6859 
2141 1 10.85 5.40695 23.7859 
2441 1 10.85 5.40695 26.8859 
2741 1 10.85 5.40695 29.9859 
1814 1 13.95 2.30695 20.6859 
2114 1 13.95 2.30695 23.7859 
2414 1 13.95 2.30695 26.8859 
2714 1 13.95 2.30695 29.9859 
1844 1 13.95 5.40695 20.6859 
2144 1 13.95 5.40695 23.7859 
2444 1 13.95 5.40695 26.8859 
2744 1 13.95 5.40695 29.9859 
1893 1 1.55 10.093 20.6859 
2193 1 1.55 10.093 23.7859 
2493 1 1.55 10.093 26.8859 
2793 1 1.55 10.093 29.9859 
1923 1 1.55 13.193 20.6859 
2223 1 1.55 13.193 23.7859 
2523 1 1.55 13.193 26.8859 
2823 1 1.55 13.193 29.9859 
1896 1 4.65 10.093 20.6859 
2196 1 4.65 10.093 23.7859 
2496 1 4.65 10.093 26.8859 
2796 1 4.65 10.093 29.9859 
1926 1 4.65 13.193 20.6859 
2226 1 4.65 13.193 23.7859 
2526 1 4.65 13.193 26.8859 
2826 1 4.65 13.193 29.9859 
2161 2 1.55 7.75 23.2 
2461 2 1.55 7.75 26.3 
2761 2 1.55 7.75 29.4 
2191 2 1.55 10.85 23.2 
2491 2 1.55 10.85 26.3 
2791 2 1.55 10.85 29.4 
2221 2 1.55 13.95 23.2 
2521 2 1.55 13.95 26.3 
2821 2 1.55 13.95 29.4 
2164 2 4.65 7.75 23.2 
2464 2 4.65 7.75 26.3 
2764 2 4.65 7.75 29.4 
2194 2 4.65 10.85 23.2 
2494 2 4.65 10.85 26.3 
2794 2 4.65 10.85 29.4 
2224 2 4.65 13.95 23.2 
2524 2 4.65 13.95 26.3 
2824 2 4.65 13.95 29.4 
1862 1 1.55 8.50695 20.6859 
2162 1 1.55 8.50695 23.7859 
2462 1 1.55 8.50695 26.8859 
2762 1 1.55 8.50695 29.9859 
1892 1 1.55 11.607 20.6859 
2192 1 1.55 11.607 23.7859 
2492 1 1.55 11.607 26.8859 
2792 1 1.55 11.607 29.9859 
1922 1 1.55 14.707 20.6859 
2222 1 1.55 14.707 23.7859 
2522 1 1.55 14.707 26.8859 
2822 1 1.55 14.707 29.9859 
1865 1 4.65 8.50695 20.6859 
2165 1 4.65 8.50695 23.7859 
2465 1 4.65 8.50695 26.8859 
2765 1 4.65 8.50695 29.9859 
1895 1 4.65 11.607 20.6859 
2195 1 4.65 11.607 23.7859 
2495 1 4.65 11.607 26.8859 
2795 1 4.65 11.607 29.9859 
1925 1 4.65 14.707 20.6859 
2225 1 4.65 14.707 23.7859 
2525 1 4.65 14.707 26.8859 
2825 1 4.65 14.707 29.9859 
1899 1 7.75 10.093 20.6859 
2199 1 7.75 10.093 23.7859 
2499 1 7.75 10.093 26.8859 
2799 1 7.75 10.093 29.9859 
1929 1 7.75 13.193 20.6859 
2229 1 7.75 13.193 23.7859 
2529 1 7.75 13.193 26.8859 
2829 1 7.75 13.193 29.9859 
1902 1 10.85 10.093 20.6859 
2202 1 10.85 10.093 23.7859 
2502 1 10.85 10.093 26.8859 
2802 1 10.85 10.093 29.9859 
1932 1 10.85 13.193 20.6859 
2232 1 10.85 13.193 23.7859 
2532 1 10.85 13.193 26.8859 
2832 1 10.85 13.193 29.9859 
1905 1 13.95 10.093 20.6859 
2205 1 13.95 10.093 23.7859 
2505 1 13.95 10.093 26.8859 
2805 1 13.95 10.093 29.9859 
1935 1 13.95 13.193 20.6859 
2235 1 13.95 13.193 23.7859 
2535 1 13.95 13.193 26.8859 
2835 1 13.95 13.193 29.9859 
2167 2 7.75 7.75 23.2 
2467 2 7.75 7.75 26.3 
2767 2 7.75 7.75 29.4 
2197 2 7.75 10.85 23.2 
2497 2 7.75 10.85 26.3 
2797 2 7.75 10.85 29.4 
2227 2 7.75 13.95 23.2 
2527 2 7.75 13.95 26.3 
2827 2 7.75 13.95 29.4 
2170 2 10.85 7.75 23.2 
2470 2 10.85 7.75 26.3 
2770 2 10.85 7.75 29.4 
2200 2 10.85 10.85 23.2 
2500 2 10.85 10.85 26.3 
2800 2 10.85 10.85 29.4 
2230 2 10.85 13.95 23.2 
2530 2 10.85 13.95 26.3 
2830 2 10.85 13.95 29.4 
2173 2 13.95 7.75 23.2 
2473 2 13.95 7.75 26.3 
2773 2 13.95 7.75 29.4 
2203 2 13.95 10.85 23.2 
2503 2 13.95 10.85 26.3 
2803 2 13.95 10.85 29.4 
2233 2 13.95 13.95 23.2 
2533 2 13.95 13.95 26.3 
2833 2 13.95 13.95 29.4 
1868 1 7.75 8.50695 20.6859 
2168 1 7.75 8.50695 23.7859 
2468 1 7.75 8.50695 26.8859 
2768 1 7.75 8.50695 29.9859 
1898 1 7.75 11.607 20.6859 
2198 1 7.75 11.607 23.7859 
2498 1 7.75 11.607 26.8859 
2798 1 7.75 11.607 29.9859 
1928 1 7.75 14.707 20.6859 
2228 1 7.75 14.707 23.7859 
2528 1 7.75 14.707 26.8859 
2828 1 7.75 14.707 29.9859 
1871 1 10.85 8.50695 20.6859 
2171 1 10.85 8.50695 23.7859 
2471 1 10.85 8.50695 26.8859 
2771 1 10.85 8.50695 29.9859 
1901 1 10.85 11.607 20.6859 
2201 1 10.85 11.607 23.7859 
2501 1 10.85 11.607 26.8859 
2801 1 10.85 11.607 29.9859 
1931 1 10.85 14.707 20.6859 
2231 1 10.85 14.707 23.7859 
2531 1 10.85 14.707 26.8859 
2831 1 10.85 14.707 29.9859 
1874 1 13.95 8.50695 20.6859 
2174 1 13.95 8.50695 23.7859 
2474 1 13.95 8.50695 26.8859 
2774 1 13.95 8.50695 29.9859 
1904 1 13.95 11.607 20.6859 
2204 1 13.95 11.607 23.7859 
2504 1 13.95 11.607 26.8859 
2804 1 13.95 11.607 29.9859 
1934 1 13.95 14.707 20.6859 
2234 1 13.95 14.707 23.7859 
2534 1 13.95 14.707 26.8859 
2834 1 13.95 14.707 29.9859 
153 1 1.55 16.293 2.08588 
453 1 1.55 16.293 5.18588 
753 1 1.55 16.293 8.28588 
183 1 1.55 19.393 2.08588 
483 1 1.55 19.393 5.18588 
783 1 1.55 19.393 8.28588 
213 1 1.55 22.493 2.08588 
513 1 1.55 22.493 5.18588 
813 1 1.55 22.493 8.28588 
156 1 4.65 16.293 2.08588 
456 1 4.65 16.293 5.18588 
756 1 4.65 16.293 8.28588 
186 1 4.65 19.393 2.08588 
486 1 4.65 19.393 5.18588 
786 1 4.65 19.393 8.28588 
216 1 4.65 22.493 2.08588 
516 1 4.65 22.493 5.18588 
816 1 4.65 22.493 8.28588 
151 2 1.55 17.05 1.5 
451 2 1.55 17.05 4.6 
751 2 1.55 17.05 7.7 
181 2 1.55 20.15 1.5 
481 2 1.55 20.15 4.6 
781 2 1.55 20.15 7.7 
154 2 4.65 17.05 1.5 
454 2 4.65 17.05 4.6 
754 2 4.65 17.05 7.7 
184 2 4.65 20.15 1.5 
484 2 4.65 20.15 4.6 
784 2 4.65 20.15 7.7 
152 1 1.55 17.807 2.08588 
452 1 1.55 17.807 5.18588 
752 1 1.55 17.807 8.28588 
182 1 1.55 20.907 2.08588 
482 1 1.55 20.907 5.18588 
782 1 1.55 20.907 8.28588 
155 1 4.65 17.807 2.08588 
455 1 4.65 17.807 5.18588 
755 1 4.65 17.807 8.28588 
185 1 4.65 20.907 2.08588 
485 1 4.65 20.907 5.18588 
785 1 4.65 20.907 8.28588 
159 1 7.75 16.293 2.08588 
459 1 7.75 16.293 5.18588 
759 1 7.75 16.293 8.28588 
189 1 7.75 19.393 2.08588 
489 1 7.75 19.393 5.18588 
789 1 7.75 19.393 8.28588 
219 1 7.75 22.493 2.08588 
519 1 7.75 22.493 5.18588 
819 1 7.75 22.493 8.28588 
162 1 10.85 16.293 2.08588 
462 1 10.85 16.293 5.18588 
762 1 10.85 16.293 8.28588 
192 1 10.85 19.393 2.08588 
492 1 10.85 19.393 5.18588 
792 1 10.85 19.393 8.28588 
222 1 10.85 22.493 2.08588 
522 1 10.85 22.493 5.18588 
822 1 10.85 22.493 8.28588 
165 1 13.95 16.293 2.08588 
465 1 13.95 16.293 5.18588 
765 1 13.95 16.293 8.28588 
195 1 13.95 19.393 2.08588 
495 1 13.95 19.393 5.18588 
795 1 13.95 19.393 8.28588 
225 1 13.95 22.493 2.08588 
525 1 13.95 22.493 5.18588 
825 1 13.95 22.493 8.28588 
157 2 7.75 17.05 1.5 
457 2 7.75 17.05 4.6 
757 2 7.75 17.05 7.7 
187 2 7.75 20.15 1.5 
487 2 7.75 20.15 4.6 
787 2 7.75 20.15 7.7 
160 2 10.85 17.05 1.5 
460 2 10.85 17.05 4.6 
760 2 10.85 17.05 7.7 
190 2 10.85 20.15 1.5 
490 2 10.85 20.15 4.6 
790 2 10.85 20.15 7.7 
163 2 13.95 17.05 1.5 
463 2 13.95 17.05 4.6 
763 2 13.95 17.05 7.7 
193 2 13.95 20.15 1.5 
493 2 13.95 20.15 4.6 
793 2 13.95 20.15 7.7 
158 1 7.75 17.807 2.08588 
458 1 7.75 17.807 5.18588 
758 1 7.75 17.807 8.28588 
188 1 7.75 20.907 2.08588 
488 1 7.75 20.907 5.18588 
788 1 7.75 20.907 8.28588 
161 1 10.85 17.807 2.08588 
461 1 10.85 17.807 5.18588 
761 1 10.85 17.807 8.28588 
191 1 10.85 20.907 2.08588 
491 1 10.85 20.907 5.18588 
791 1 10.85 20.907 8.28588 
164 1 13.95 17.807 2.08588 
464 1 13.95 17.807 5.18588 
764 1 13.95 17.807 8.28588 
194 1 13.95 20.907 2.08588 
494 1 13.95 20.907 5.18588 
794 1 13.95 20.907 8.28588 
243 1 1.55 25.593 2.08588 
543 1 1.55 25.593 5.18588 
843 1 1.55 25.593 8.28588 
273 1 1.55 28.693 2.08588 
573 1 1.55 28.693 5.18588 
873 1 1.55 28.693 8.28588 
246 1 4.65 25.593 2.08588 
546 1 4.65 25.593 5.18588 
846 1 4.65 25.593 8.28588 
276 1 4.65 28.693 2.08588 
576 1 4.65 28.693 5.18588 
876 1 4.65 28.693 8.28588 
211 2 1.55 23.25 1.5 
511 2 1.55 23.25 4.6 
811 2 1.55 23.25 7.7 
241 2 1.55 26.35 1.5 
541 2 1.55 26.35 4.6 
841 2 1.55 26.35 7.7 
271 2 1.55 29.45 1.5 
571 2 1.55 29.45 4.6 
871 2 1.55 29.45 7.7 
214 2 4.65 23.25 1.5 
514 2 4.65 23.25 4.6 
814 2 4.65 23.25 7.7 
244 2 4.65 26.35 1.5 
544 2 4.65 26.35 4.6 
844 2 4.65 26.35 7.7 
274 2 4.65 29.45 1.5 
574 2 4.65 29.45 4.6 
874 2 4.65 29.45 7.7 
212 1 1.55 24.007 2.08588 
512 1 1.55 24.007 5.18588 
812 1 1.55 24.007 8.28588 
242 1 1.55 27.107 2.08588 
542 1 1.55 27.107 5.18588 
842 1 1.55 27.107 8.28588 
272 1 1.55 30.207 2.08588 
572 1 1.55 30.207 5.18588 
872 1 1.55 30.207 8.28588 
215 1 4.65 24.007 2.08588 
515 1 4.65 24.007 5.18588 
815 1 4.65 24.007 8.28588 
245 1 4.65 27.107 2.08588 
545 1 4.65 27.107 5.18588 
845 1 4.65 27.107 8.28588 
275 1 4.65 30.207 2.08588 
575 1 4.65 30.207 5.18588 
875 1 4.65 30.207 8.28588 
249 1 7.75 25.593 2.08588 
549 1 7.75 25.593 5.18588 
849 1 7.75 25.593 8.28588 
279 1 7.75 28.693 2.08588 
579 1 7.75 28.693 5.18588 
879 1 7.75 28.693 8.28588 
252 1 10.85 25.593 2.08588 
552 1 10.85 25.593 5.18588 
852 1 10.85 25.593 8.28588 
282 1 10.85 28.693 2.08588 
582 1 10.85 28.693 5.18588 
882 1 10.85 28.693 8.28588 
255 1 13.95 25.593 2.08588 
555 1 13.95 25.593 5.18588 
855 1 13.95 25.593 8.28588 
285 1 13.95 28.693 2.08588 
585 1 13.95 28.693 5.18588 
885 1 13.95 28.693 8.28588 
217 2 7.75 23.25 1.5 
517 2 7.75 23.25 4.6 
817 2 7.75 23.25 7.7 
247 2 7.75 26.35 1.5 
547 2 7.75 26.35 4.6 
847 2 7.75 26.35 7.7 
277 2 7.75 29.45 1.5 
577 2 7.75 29.45 4.6 
877 2 7.75 29.45 7.7 
220 2 10.85 23.25 1.5 
520 2 10.85 23.25 4.6 
820 2 10.85 23.25 7.7 
250 2 10.85 26.35 1.5 
550 2 10.85 26.35 4.6 
850 2 10.85 26.35 7.7 
280 2 10.85 29.45 1.5 
580 2 10.85 29.45 4.6 
880 2 10.85 29.45 7.7 
223 2 13.95 23.25 1.5 
523 2 13.95 23.25 4.6 
823 2 13.95 23.25 7.7 
253 2 13.95 26.35 1.5 
553 2 13.95 26.35 4.6 
853 2 13.95 26.35 7.7 
283 2 13.95 29.45 1.5 
583 2 13.95 29.45 4.6 
883 2 13.95 29.45 7.7 
218 1 7.75 24.007 2.08588 
518 1 7.75 24.007 5.18588 
818 1 7.75 24.007 8.28588 
248 1 7.75 27.107 2.08588 
548 1 7.75 27.107 5.18588 
848 1 7.75 27.107 8.28588 
278 1 7.75 30.207 2.08588 
578 1 7.75 30.207 5.18588 
878 1 7.75 30.207 8.28588 
221 1 10.85 24.007 2.08588 
521 1 10.85 24.007 5.18588 
821 1 10.85 24.007 8.28588 
251 1 10.85 27.107 2.08588 
551 1 10.85 27.107 5.18588 
851 1 10.85 27.107 8.28588 
281 1 10.85 30.207 2.08588 
581 1 10.85 30.207 5.18588 
881 1 10.85 30.207 8.28588 
224 1 13.95 24.007 2.08588 
524 1 13.95 24.007 5.18588 
824 1 13.95 24.007 8.28588 
254 1 13.95 27.107 2.08588 
554 1 13.95 27.107 5.18588 
854 1 13.95 27.107 8.28588 
284 1 13.95 30.207 2.08588 
584 1 13.95 30.207 5.18588 
884 1 13.95 30.207 8.28588 
1053 1 1.55 16.293 11.3859 
1353 1 1.55 16.293 14.4859 
1653 1 1.55 16.293 17.5859 
1083 1 1.55 19.393 11.3859 
1383 1 1.55 19.393 14.4859 
1683 1 1.55 19.393 17.5859 
1113 1 1.55 22.493 11.3859 
1413 1 1.55 22.493 14.4859 
1713 1 1.55 22.493 17.5859 
1056 1 4.65 16.293 11.3859 
1356 1 4.65 16.293 14.4859 
1656 1 4.65 16.293 17.5859 
1086 1 4.65 19.393 11.3859 
1386 1 4.65 19.393 14.4859 
1686 1 4.65 19.393 17.5859 
1116 1 4.65 22.493 11.3859 
1416 1 4.65 22.493 14.4859 
1716 1 4.65 22.493 17.5859 
1051 2 1.55 17.05 10.8 
1351 2 1.55 17.05 13.9 
1651 2 1.55 17.05 17 
1951 2 1.55 17.05 20.1 
1081 2 1.55 20.15 10.8 
1381 2 1.55 20.15 13.9 
1681 2 1.55 20.15 17 
1981 2 1.55 20.15 20.1 
1054 2 4.65 17.05 10.8 
1354 2 4.65 17.05 13.9 
1654 2 4.65 17.05 17 
1954 2 4.65 17.05 20.1 
1084 2 4.65 20.15 10.8 
1384 2 4.65 20.15 13.9 
1684 2 4.65 20.15 17 
1984 2 4.65 20.15 20.1 
1052 1 1.55 17.807 11.3859 
1352 1 1.55 17.807 14.4859 
1652 1 1.55 17.807 17.5859 
1082 1 1.55 20.907 11.3859 
1382 1 1.55 20.907 14.4859 
1682 1 1.55 20.907 17.5859 
1055 1 4.65 17.807 11.3859 
1355 1 4.65 17.807 14.4859 
1655 1 4.65 17.807 17.5859 
1085 1 4.65 20.907 11.3859 
1385 1 4.65 20.907 14.4859 
1685 1 4.65 20.907 17.5859 
1059 1 7.75 16.293 11.3859 
1359 1 7.75 16.293 14.4859 
1659 1 7.75 16.293 17.5859 
1089 1 7.75 19.393 11.3859 
1389 1 7.75 19.393 14.4859 
1689 1 7.75 19.393 17.5859 
1119 1 7.75 22.493 11.3859 
1419 1 7.75 22.493 14.4859 
1719 1 7.75 22.493 17.5859 
1062 1 10.85 16.293 11.3859 
1362 1 10.85 16.293 14.4859 
1662 1 10.85 16.293 17.5859 
1092 1 10.85 19.393 11.3859 
1392 1 10.85 19.393 14.4859 
1692 1 10.85 19.393 17.5859 
1122 1 10.85 22.493 11.3859 
1422 1 10.85 22.493 14.4859 
1722 1 10.85 22.493 17.5859 
1065 1 13.95 16.293 11.3859 
1365 1 13.95 16.293 14.4859 
1665 1 13.95 16.293 17.5859 
1095 1 13.95 19.393 11.3859 
1395 1 13.95 19.393 14.4859 
1695 1 13.95 19.393 17.5859 
1125 1 13.95 22.493 11.3859 
1425 1 13.95 22.493 14.4859 
1725 1 13.95 22.493 17.5859 
1057 2 7.75 17.05 10.8 
1357 2 7.75 17.05 13.9 
1657 2 7.75 17.05 17 
1957 2 7.75 17.05 20.1 
1087 2 7.75 20.15 10.8 
1387 2 7.75 20.15 13.9 
1687 2 7.75 20.15 17 
1987 2 7.75 20.15 20.1 
1060 2 10.85 17.05 10.8 
1360 2 10.85 17.05 13.9 
1660 2 10.85 17.05 17 
1960 2 10.85 17.05 20.1 
1090 2 10.85 20.15 10.8 
1390 2 10.85 20.15 13.9 
1690 2 10.85 20.15 17 
1990 2 10.85 20.15 20.1 
1063 2 13.95 17.05 10.8 
1363 2 13.95 17.05 13.9 
1663 2 13.95 17.05 17 
1963 2 13.95 17.05 20.1 
1093 2 13.95 20.15 10.8 
1393 2 13.95 20.15 13.9 
1693 2 13.95 20.15 17 
1993 2 13.95 20.15 20.1 
1058 1 7.75 17.807 11.3859 
1358 1 7.75 17.807 14.4859 
1658 1 7.75 17.807 17.5859 
1088 1 7.75 20.907 11.3859 
1388 1 7.75 20.907 14.4859 
1688 1 7.75 20.907 17.5859 
1061 1 10.85 17.807 11.3859 
1361 1 10.85 17.807 14.4859 
1661 1 10.85 17.807 17.5859 
1091 1 10.85 20.907 11.3859 
1391 1 10.85 20.907 14.4859 
1691 1 10.85 20.907 17.5859 
1064 1 13.95 17.807 11.3859 
1364 1 13.95 17.807 14.4859 
1664 1 13.95 17.807 17.5859 
1094 1 13.95 20.907 11.3859 
1394 1 13.95 20.907 14.4859 
1694 1 13.95 20.907 17.5859 
1143 1 1.55 25.593 11.3859 
1443 1 1.55 25.593 14.4859 
1743 1 1.55 25.593 17.5859 
1173 1 1.55 28.693 11.3859 
1473 1 1.55 28.693 14.4859 
1773 1 1.55 28.693 17.5859 
1146 1 4.65 25.593 11.3859 
1446 1 4.65 25.593 14.4859 
1746 1 4.65 25.593 17.5859 
1176 1 4.65 28.693 11.3859 
1476 1 4.65 28.693 14.4859 
1776 1 4.65 28.693 17.5859 
1111 2 1.55 23.25 10.8 
1411 2 1.55 23.25 13.9 
1711 2 1.55 23.25 17 
2011 2 1.55 23.25 20.1 
1141 2 1.55 26.35 10.8 
1441 2 1.55 26.35 13.9 
1741 2 1.55 26.35 17 
2041 2 1.55 26.35 20.1 
1171 2 1.55 29.45 10.8 
1471 2 1.55 29.45 13.9 
1771 2 1.55 29.45 17 
2071 2 1.55 29.45 20.1 
1114 2 4.65 23.25 10.8 
1414 2 4.65 23.25 13.9 
1714 2 4.65 23.25 17 
2014 2 4.65 23.25 20.1 
1144 2 4.65 26.35 10.8 
1444 2 4.65 26.35 13.9 
1744 2 4.65 26.35 17 
2044 2 4.65 26.35 20.1 
1174 2 4.65 29.45 10.8 
1474 2 4.65 29.45 13.9 
1774 2 4.65 29.45 17 
2074 2 4.65 29.45 20.1 