LAMMPS (7 Aug 2019)
OMP_NUM_THREADS environment is not set. Defaulting to 1 thread. (../comm.cpp:93)
  using 1 OpenMP thread(s) per MPI task
Reading data file ...
  orthogonal box = (0 0 0) to (17.1661 17.1318 17.1318)
  2 by 1 by 1 MPI processor grid
  reading atoms ...
  432 atoms
  read_data CPU = 0.000612974 secs
432 atoms in group iron
432 atoms in group Fe
Neighbor list info ...
  update every 1 steps, delay 10 steps, check yes
  max neighbors/atom: 2000, page size: 100000
  master list distance cutoff = 7.3
  ghost atom cutoff = 7.3
  binsize = 3.65, bins = 5 5 5
  1 neighbor lists, perpetual/occasional/extra = 1 0 0
  (1) pair eam/fs, perpetual
      attributes: half, newton on
      pair build: half/bin/atomonly/newton
      stencil: half/bin/3d/newton
      bin: standard
Setting up Verlet run ...
  Unit style    : metal
  Current step  : 0
  Time step     : 0.002
Per MPI rank memory allocation (min/avg/max) = 4.28 | 4.28 | 4.28 Mbytes
Step Temp PotEng TotEng Press Volume 
       0          300   -1733.5932   -1716.8799    17.446209    5038.2151 
     100    138.82926   -1724.0302   -1716.2958   -2048.1124    5043.0685 
     200    137.57067   -1723.1407   -1715.4765    2180.6192     5031.954 
     300    165.57918   -1723.6387   -1714.4141    2734.7253    5031.2294 
     400    195.37762   -1724.1057    -1713.221   -2444.0919    5045.7774 
     500    188.28672   -1722.3766    -1711.887    -1515.361    5049.0132 
     600    200.27763   -1721.6295   -1710.4718   -1654.0161    5046.8491 
     700    213.70723   -1720.8768    -1708.971   -267.39583    5042.3201 
     800    219.70499   -1719.6705   -1707.4305     3575.813    5035.2027 
     900    239.57673    -1719.192   -1705.8449    4327.5077    5036.9674 
    1000    237.21172   -1717.5037   -1704.2884   -3316.6804    5059.6753 
    1100     268.7487   -1717.6994   -1702.7271   -6865.1788    5072.3304 
    1200     297.1306   -1717.8359   -1701.2825   -3462.2815    5060.9283 
    1300    270.72569   -1715.0214    -1699.939    4069.6047    5042.0919 
    1400    307.94488   -1715.8654   -1698.7094    7348.9939    5032.2533 
    1500    323.23461   -1715.8555   -1697.8477    5038.9681    5044.4108 
    1600    273.28744   -1712.3881   -1697.1629   -6856.0469    5077.9179 
    1700    352.48305    -1716.452   -1696.8148   -8190.4928    5080.4942 
    1800    330.75261   -1715.3556    -1696.929   -198.12462    5058.1752 
    1900     325.9229   -1715.4974   -1697.3399    4878.2853    5040.9956 
    2000    322.34943   -1716.0265   -1698.0681    5553.8026    5039.4105 
    2100    280.19218   -1714.5815   -1698.9717   -876.69165    5058.7365 
    2200    328.35707   -1717.9983   -1699.7051   -6316.6913    5074.2451 
    2300    305.14662   -1717.3705   -1700.3704   -5127.5928    5069.0018 
    2400    273.72273   -1716.0844    -1700.835    2123.9847    5047.5667 
    2500    261.04127   -1715.5944   -1701.0515    4997.2569    5038.7485 
    2600     272.5071    -1716.207   -1701.0253    3768.4861    5043.4007 
    2700    312.58017   -1718.1585   -1700.7443   -426.22494    5055.6924 
    2800     294.1777   -1716.6218   -1700.2329    -5091.685    5069.1001 
    2900    282.85598    -1715.384   -1699.6258   -2524.4727    5061.1187 
    3000    307.01353   -1716.0826   -1698.9786    2988.6836    5047.5235 
    3100    312.50334   -1715.8001   -1698.3902    3138.7742    5045.4776 
    3200    310.19789   -1715.2546   -1697.9731    1869.6302    5049.5483 
    3300    315.42828   -1715.3356   -1697.7628   -1413.3759    5059.3538 
    3400    316.03782   -1715.3744   -1697.7675   -4011.5086    5067.2623 
    3500    305.07616   -1715.0495   -1698.0533   -2363.3736    5061.9033 
    3600    319.01429   -1716.2603   -1698.4876    2807.0725    5045.9759 
    3700    301.27368    -1715.823   -1699.0388    5355.3023     5039.182 
    3800    295.96227   -1716.1055   -1699.6171    65.668598    5050.0016 
    3900    285.17884   -1715.9754   -1700.0878   -3471.6632    5065.0524 
    4000    280.18766   -1716.0426   -1700.4331   -5931.8299    5073.4023 
    4100    296.97911   -1717.1684   -1700.6234    720.85477    5052.7247 
    4200    289.10072   -1716.6548   -1700.5487    7971.3922    5028.5244 
    4300    290.39417   -1716.5254   -1700.3472    5967.2672    5032.6303 
    4400    296.90445   -1716.5286   -1699.9877   -592.57358    5057.5256 
    4500    310.62778    -1716.741   -1699.4356   -9693.2952    5086.7097 
    4600    301.85028   -1715.7762   -1698.9598   -7948.1536    5080.1411 
    4700    313.46296   -1716.0294    -1698.566    1620.8697    5049.3854 
    4800    316.69685   -1715.8352   -1698.1917    6576.5998    5034.3804 
    4900    310.80878   -1715.3595    -1698.044    3856.2825    5044.9932 
    5000     300.1528   -1714.8049    -1698.083   -944.16677    5059.8713 
    5100    285.15194   -1714.1773   -1698.2912    -2794.178    5065.0254 
    5200    321.51873   -1716.6004   -1698.6882   -3305.3729    5062.9789 
    5300    308.40226   -1716.3639   -1699.1824     821.3274    5052.3898 
    5400    299.32618   -1716.3066   -1699.6308    2750.1363    5045.6626 
    5500    276.32156    -1715.415   -1700.0208    1787.4436    5048.2822 
    5600    282.82212   -1716.0407   -1700.2844   -191.95783    5053.6444 
    5700    291.73731   -1716.6551   -1700.4021   -1597.2208     5057.184 
    5800    282.03801   -1716.0741   -1700.3614   -857.36573    5056.2096 
    5900    314.69032   -1717.6785   -1700.1468    2196.4741    5048.1552 
    6000      289.549   -1715.8879   -1699.7568    1016.7328     5051.485 
    6100    293.63708   -1715.5953   -1699.2364   -1585.3155    5060.5098 
    6200    317.77175   -1716.4387   -1698.7352   -3441.5468    5065.7719 
    6300    292.27713   -1714.6754   -1698.3923    -641.9857    5060.2236 
    6400    310.65115   -1715.5476   -1698.2409    1879.2002    5049.4319 
    6500    294.51484    -1714.618   -1698.2103     5963.118     5035.312 
    6600    319.24647   -1716.2062   -1698.4206    4359.1793    5040.1823 
    6700    309.52807   -1716.0778   -1698.8336   -6161.5872    5073.5072 
    6800    296.60395   -1716.0551    -1699.531   -10778.834    5087.7668 
    6900    281.14358   -1716.1304   -1700.4676   -2664.0628    5062.7255 
    7000    293.38446    -1717.152   -1700.8072     7198.135    5029.7918 
    7100    279.40753   -1716.3394   -1700.7733     9220.767    5026.2815 
    7200    289.46624    -1716.811   -1700.6845     1728.134    5049.0236 
    7300    298.55493   -1716.9772   -1700.3444   -6154.3394    5071.8125 
    7400    290.54142   -1716.1017   -1699.9153   -5546.5574    5070.2815 
    7500    296.65479   -1716.0524   -1699.5255   -1471.7012    5056.0941 
    7600    294.19731   -1715.5016   -1699.1115    4690.5144    5040.2814 
    7700    301.87716   -1715.6593   -1698.8414    4256.9679    5042.0194 
    7800    308.77234   -1715.8813   -1698.6793   -863.64283    5057.1666 
    7900    295.90302    -1715.097   -1698.6119   -3288.7671    5064.6425 
    8000    308.36359   -1715.8505   -1698.6712    -2118.418     5060.378 
    8100    304.92675   -1715.8562   -1698.8684    710.00297     5053.361 
    8200    297.55545   -1715.9145   -1699.3374    4246.8296    5041.8136 
    8300    285.34077    -1716.164   -1700.2673    2589.2273    5044.6424 
    8400    287.82484   -1717.0466   -1701.0116    -2919.551    5061.4887 
    8500    288.39911   -1717.2978   -1701.2307   -4624.3712    5066.5233 
    8600    291.70133   -1717.4175   -1701.1665   -1104.3101    5056.1685 
    8700    270.97782   -1715.9515    -1700.855    2993.0674    5043.5292 
    8800     296.9522   -1716.9334   -1700.3899    4197.8028    5038.5102 
    8900    294.71537   -1716.3486   -1699.9296    1438.1601    5050.7614 
    9000    293.69373   -1715.8677   -1699.5057   -5456.5644    5071.1095 
    9100    305.25951   -1716.2391   -1699.2328   -4165.3765    5067.9584 
    9200    293.49092   -1715.4231   -1699.0723    239.52851    5054.9569 
    9300    316.91143   -1716.6041   -1698.9486    3761.3318    5042.7234 
    9400    307.38274   -1716.0165   -1698.8919    6181.1838    5036.0131 
    9500    298.63783   -1715.5935    -1698.956    184.58456    5055.0407 
    9600    300.19741   -1715.7153    -1698.991   -5969.7345    5074.4491 
    9700    287.91972   -1715.2246   -1699.1843   -5633.3819    5074.2361 
    9800     288.7223    -1715.732   -1699.6469    1017.1374    5052.8154 
    9900    287.60293   -1716.3553   -1700.3327    6528.7774    5033.9254 
   10000    299.91994   -1717.6536   -1700.9448    5423.6393    5036.1517 
Loop time of 4.64854 on 2 procs for 10000 steps with 432 atoms

Performance: 371.730 ns/day, 0.065 hours/ns, 2151.213 timesteps/s
99.8% CPU use with 2 MPI tasks x 1 OpenMP threads

MPI task timing breakdown:
Section |  min time  |  avg time  |  max time  |%varavg| %total
---------------------------------------------------------------
Pair    | 4.2297     | 4.2507     | 4.2717     |   1.0 | 91.44
Neigh   | 0.00042295 | 0.00043797 | 0.000453   |   0.0 |  0.01
Comm    | 0.17374    | 0.19531    | 0.21687    |   4.9 |  4.20
Output  | 0.029444   | 0.029632   | 0.02982    |   0.1 |  0.64
Modify  | 0.13562    | 0.13609    | 0.13656    |   0.1 |  2.93
Other   |            | 0.03636    |            |       |  0.78

Nlocal:    216 ave 228 max 204 min
Histogram: 1 0 0 0 0 0 0 0 0 1
Nghost:    2040 ave 2052 max 2028 min
Histogram: 1 0 0 0 0 0 0 0 0 1
Neighs:    14974 ave 15662 max 14286 min
Histogram: 1 0 0 0 0 0 0 0 0 1

Total # of neighbors = 29948
Ave neighs/atom = 69.3241
Neighbor list builds = 1
Dangerous builds = 0
Setting up Verlet run ...
  Unit style    : metal
  Current step  : 10000
  Time step     : 0.002
Per MPI rank memory allocation (min/avg/max) = 4.281 | 4.281 | 4.281 Mbytes
Step Temp PotEng TotEng Press Volume v_my_lx f_1 f_2 f_3 f_4 f_5 
   10000    299.91994   -1717.6536   -1700.9448    5423.6393    5036.1517      2.86062            0            0            0            0            0 
   10100    289.70623   -1717.3972   -1701.2573   -430.89755    5053.8884    2.8639743    5051.8728    284.28482    482.37346   -1701.1232    2.8635902 
   10200    293.14871   -1717.5077    -1701.176   -7401.8456    5075.2767    2.8680087     5053.795    283.46695   -139.75101   -1701.1811    2.8639533 
   10300    295.09584   -1717.3221    -1700.882   -3991.5118    5067.0773    2.8664634    5054.5066    283.87554   -386.18603   -1701.1408    2.8640878 
   10400    282.46256   -1716.0765   -1700.3402    2614.0196    5048.1978    2.8628989    5054.2723    284.82157    -296.4192   -1701.0107    2.8640438 
   10500    299.09421   -1716.4025   -1699.7397    3453.7741      5041.16    2.8615679    5053.8379    286.43898   -103.03424   -1700.8131    2.8639621 
   10600    303.31116   -1716.2691   -1699.3713    2285.5228    5047.3696    2.8627424     5053.687    288.50512   -4.9408609   -1700.5998    2.8639338 
   10700    296.57739    -1715.694   -1699.1713   -1432.4618    5059.7952    2.8650896    5053.8368    290.37557   -15.844226   -1700.4078    2.8639624 
   10800    312.48078   -1716.4753   -1699.0666   -4036.6747    5067.3911    2.8665226      5054.11    291.57198   -71.480147   -1700.2464    2.8640141 
   10900    310.75803   -1716.3467   -1699.0341   -1275.1752    5057.0662    2.8645744    5054.2714    292.70767   -109.43134   -1700.1132    2.8640448 
   11000    299.83119   -1715.7332   -1699.0293    1269.1769    5048.4026    2.8629377    5054.1805     293.8807   -65.892729   -1700.0043    2.8640277 
   11100    294.06585   -1715.4625   -1699.0798    3120.7359    5044.9271    2.8622805    5054.1668    294.56119   -47.257343   -1699.9179    2.8640253 
   11200    296.85461   -1715.7291    -1699.191    666.95858    5053.5822    2.8639164    5054.1288    295.12538   -25.059178   -1699.8524    2.8640182 
   11300    302.12848   -1716.2212   -1699.3893   -2047.3787    5061.0597    2.8653283    5054.1477    295.63018   -31.353638   -1699.8085    2.8640218 
   11400    276.44059     -1715.13   -1699.7292   -859.25611    5057.6977    2.8646937    5054.2357    295.67448   -53.932828   -1699.7898    2.8640386 
   11500    296.74968    -1716.764   -1700.2318    1018.3185    5049.3607    2.8631188    5054.2012    295.60525   -50.943788   -1699.8021    2.8640321 
   11600     307.7329   -1717.8886   -1700.7445    1018.1534     5047.613    2.8627884    5054.0954    295.27198    -46.20439   -1699.8456    2.8640122 
   11700    290.95209   -1717.2999   -1701.0906    1080.4629    5048.0482    2.8628707    5053.9504    294.72293   -29.446448     -1699.91    2.8639848 
   11800     276.7839   -1716.6209    -1701.201    485.21852    5051.6647    2.8635542    5053.8373    294.14147   -14.411462   -1699.9798    2.8639635 
   11900    283.30279      -1716.8   -1701.0169   -1496.9976    5058.7373    2.8648899    5053.7986    293.56571   -25.848527   -1700.0406    2.8639563 
   12000    283.29161   -1716.2356   -1700.4531   -1101.1524     5056.529     2.864473    5053.8041    293.21001   -43.251523   -1700.0769    2.8639573 
   12100    318.24423   -1717.3472   -1699.6175   -1192.9967     5055.824    2.8643399    5053.7842    293.33757   -43.218617   -1700.0746    2.8639536 
   12200    309.44459   -1716.2927   -1699.0532    1486.6819    5049.9574    2.8632315    5053.8031    293.57349   -34.664619   -1700.0394    2.8639572 
   12300     307.6044   -1715.9556   -1698.8186    1083.8607     5052.356    2.8636848    5053.8084    293.97671   -24.641542   -1699.9906    2.8639582 
   12400    297.98175   -1715.3459    -1698.745    434.05494    5054.0562     2.864006    5053.8397    294.42834    -18.47324   -1699.9398    2.8639642 
   12500    300.59046   -1715.5076   -1698.7614   -1363.5119    5057.7368     2.864701    5053.9335      294.868   -26.190317   -1699.8919     2.863982 
   12600    309.10268   -1716.0815   -1698.8611   -178.99114    5055.3991    2.8642596    5054.0054    295.21433   -31.475795   -1699.8502    2.8639956 
   12700    298.27141   -1715.6601   -1699.0431    1318.7966    5051.6404    2.8635496    5054.0432    295.46685   -28.921792   -1699.8168    2.8640027 
   12800    292.24633   -1715.6016   -1699.3203    751.64353    5050.1498    2.8632679    5054.0318    295.71814   -22.974717   -1699.7938    2.8640006 
   12900    301.69409   -1716.4952   -1699.6875    623.12044     5051.798    2.8635794    5054.0329    295.80447   -19.860579   -1699.7835    2.8640008 
   13000    298.57766   -1716.7619   -1700.1278     272.6843    5054.3216    2.8640561    5054.0143    295.74839   -12.571129   -1699.7875    2.8639973 
   13100    274.17417   -1715.8454   -1700.5709    -2338.509     5061.134    2.8653423     5054.024    295.55742   -16.212385   -1699.8058    2.8639992 
   13200    286.51299   -1716.9121   -1700.9501   -2327.9368    5059.9392    2.8651168    5054.0335    295.31666   -28.990858   -1699.8361     2.864001 
   13300    273.70056   -1716.4416   -1701.1935    812.14543     5049.946    2.8632294    5054.0129    294.98071   -29.403217    -1699.874    2.8639971 
   13400    266.08621   -1716.0551   -1701.2312    2746.9189    5044.7994    2.8622564    5053.9667    294.65738   -22.739582    -1699.914    2.8639884 
   13500    288.18441   -1716.9518   -1700.8968    1490.1203    5047.8381    2.8628309    5053.9064    294.37227   -12.479945   -1699.9481     2.863977 
   13600    301.32908   -1716.8508   -1700.0634    280.52666    5053.0342    2.8638129     5053.881    294.21372   -6.0342622   -1699.9636    2.8639722 
   13700     300.4401    -1715.994   -1699.2561   -2810.8555    5063.4886    2.8657866      5053.91    294.29289   -8.0570843   -1699.9543    2.8639777 
   13800    309.48876   -1716.0311   -1698.7891   -4495.8508    5068.9176    2.8668104    5053.9875    294.50459   -22.915216   -1699.9291    2.8639923 
   13900    308.72051   -1715.7601   -1698.5609   -1458.4777    5060.9445    2.8653065    5054.0741    294.78649   -36.956932   -1699.8965    2.8640086 
   14000    291.93271   -1714.7024   -1698.4385    3979.6963    5043.0774    2.8619307    5054.0922    295.11576   -30.553525   -1699.8611     2.864012 
   14100    316.01853   -1716.0496   -1698.4439    7611.4444    5030.3823    2.8595272    5054.0693    295.36244   -10.294654   -1699.8266    2.8640076 
   14200    306.86177   -1715.7708   -1698.6752    1940.1779    5047.6711    2.8627994    5054.0403    295.61509    11.190203   -1699.7962    2.8640021 
   14300    290.13915   -1715.1281   -1698.9641   -7017.5959    5077.7762    2.8684795    5054.1042    295.83649    1.0533185   -1699.7729    2.8640141 
   14400    291.83512   -1715.6806   -1699.4222   -8314.8304    5080.7253    2.8690347    5054.2053    295.95782   -30.240098   -1699.7599     2.864033 
   14500    312.92077   -1717.4089   -1699.9758    81.320801    5053.5257    2.8639058    5054.2316    295.97133   -38.396496   -1699.7586    2.8640379 
   14600    292.11321   -1716.6188   -1700.3448      7297.69    5030.6671    2.8595811    5054.1671    295.88155   -22.346885   -1699.7676    2.8640257 
   14700    298.24024   -1717.2245   -1700.6092    4372.7733    5037.2453     2.860827    5054.0789    295.73963     0.109941   -1699.7832     2.864009 
   14800    287.16579   -1716.6842   -1700.6859   -897.03568    5057.4453     2.864646    5054.0455    295.59205    4.9874338   -1699.8015    2.8640026 
   14900    285.90714   -1716.4049   -1700.4767   -6273.3591     5075.536    2.8680576    5054.0688    295.41657   -6.6457252   -1699.8179     2.864007 
   15000    304.07284   -1716.7843   -1699.8441    -5118.123    5068.9983    2.8668256    5054.1147    295.33812    -23.02476    -1699.826    2.8640156 
   15100    298.11287   -1715.3493   -1698.7411    2456.8538    5048.8976    2.8630312    5054.1327    295.43066   -26.545966   -1699.8152     2.864019 
   15200    316.08956   -1715.7417    -1698.132    4100.3743    5040.7932    2.8614985    5054.1276    295.69877   -16.542014   -1699.7874     2.864018 
   15300    308.25169    -1715.175   -1698.0019    3270.6373      5045.42    2.8623737    5054.1254    295.97494   -5.8927065   -1699.7547    2.8640176 
   15400    324.51255   -1716.1796   -1698.1007   -1229.1141    5059.4782    2.8650298    5054.1549    296.22401   -3.8457757   -1699.7229    2.8640232 
   15500     286.1338   -1714.3048   -1698.3639   -2198.8542     5062.839     2.865664     5054.203    296.49921    -8.883929   -1699.6955    2.8640323 
   15600    302.99071    -1715.666    -1698.786   -741.32318     5057.839    2.8647203    5054.2395    296.68063   -15.637069   -1699.6753    2.8640392 
   15700    312.07871   -1716.6472   -1699.2609    1303.9218    5050.6119    2.8633552    5054.2384     296.7584   -13.163259   -1699.6639     2.864039 
   15800    304.59581   -1716.6678   -1699.6985    338.86934    5052.5371     2.863719    5054.2107     296.7855   -6.1052992   -1699.6609    2.8640338 
   15900    285.08188   -1715.8954   -1700.0131   -1611.5434    5058.1836    2.8647854     5054.204    296.75229   -7.7211118   -1699.6644    2.8640326 
   16000     284.4239    -1716.034   -1700.1884    -1258.467    5058.2606    2.8647999    5054.2061    296.67896   -11.678989   -1699.6718     2.864033 
   16100    290.66396   -1716.4249   -1700.2317    -68.06094     5053.808    2.8639591    5054.2059    296.63525   -16.009523   -1699.6808     2.864033 
   16200    296.91794   -1716.6604   -1700.1188    981.13008     5049.828    2.8632071    5054.1962     296.5465   -13.723956    -1699.689    2.8640312 
   16300    305.82449   -1716.8271   -1699.7893    1916.4201    5046.7122    2.8626181    5054.1583    296.50312   -8.4626996   -1699.6936     2.864024 
   16400    310.21612   -1716.3311   -1699.0486    1344.3803    5049.3617     2.863119    5054.1257    296.56722  -0.51649119   -1699.6899    2.8640179 
   16500    311.19518   -1715.4046   -1698.0675   -3418.1949     5066.299    2.8663167    5054.1508    296.71919   -6.5912202   -1699.6721    2.8640226 
   16600    314.07211   -1715.0842   -1697.5869   -5025.1349    5071.9552     2.867383    5054.1871     296.9575   -15.006874   -1699.6435    2.8640295 
   16700    316.56306    -1715.195   -1697.5589   -1577.1796    5061.2642    2.8653669    5054.2312    297.24247   -20.810876   -1699.6122    2.8640378 
   16800    312.11319   -1715.1371   -1697.7489    4278.4194    5040.8223     2.861504    5054.2458    297.44201   -19.081957   -1699.5831    2.8640405 
   16900    295.11555   -1714.5417   -1698.1005    8011.3088    5029.9597    2.8594471    5054.2137    297.66025   -5.0391113   -1699.5591    2.8640344 
   17000    313.45434   -1716.0873   -1698.6244      2245.46    5047.7775    2.8628195    5054.1874    297.81452    6.5235822   -1699.5419    2.8640294 
   17100     308.1306   -1716.2141   -1699.0478   -6954.9821     5075.559    2.8680619    5054.1989    297.88952    1.6471831    -1699.532    2.8640316 
   17200    292.94025    -1715.691    -1699.371   -7652.4382    5079.0585    2.8687209    5054.2439     297.9287   -12.524148   -1699.5279      2.86404 
   17300    307.96238   -1716.8085   -1699.6515   -1850.5069     5059.046    2.8649482     5054.265    297.93851    -21.48762   -1699.5278     2.864044 
   17400    287.77753   -1715.7913   -1699.7589    4536.8963    5038.4047    2.8610465    5054.2405    297.92653    -16.45304   -1699.5302    2.8640393 
   17500    299.24044   -1716.4523   -1699.7813    5827.1073    5035.5642    2.8605087    5054.1997    297.87227   -4.5317194   -1699.5336    2.8640316 
   17600    294.77222   -1716.1953   -1699.7732    993.57184     5051.525    2.8635278    5054.1726    297.84766    1.3641136   -1699.5369    2.8640265 
   17700    290.11145   -1715.8205   -1699.6581   -4198.2304    5067.0102    2.8664508    5054.1685    297.83519  -0.76939528   -1699.5392    2.8640257 
   17800    291.43296   -1715.6674   -1699.4314   -4141.2158    5066.0329    2.8662665    5054.2036    297.83995   -11.256243   -1699.5394    2.8640323 
   17900    303.24462   -1715.8858   -1698.9917   -268.12257    5055.8858    2.8643515     5054.225    297.88656   -15.775492   -1699.5356    2.8640364 
   18000    312.24039    -1715.445   -1698.0497     3097.207    5047.2426    2.8627184     5054.219    297.98314   -10.417628   -1699.5233    2.8640352 
   18100    315.33212   -1714.7708   -1697.2033    2354.6185    5047.8223    2.8628279    5054.2213    298.16657   -4.1232821   -1699.4993    2.8640357 
   18200      342.666   -1716.0252   -1696.9349     1056.901    5053.2175    2.8638475    5054.2364    298.44031   -2.8496905   -1699.4691    2.8640385 
   18300     316.0444   -1714.6884   -1697.0812   -2969.1982    5064.5694    2.8659904    5054.2681    298.72604   -4.3876514   -1699.4391    2.8640445 
   18400    317.26997   -1715.1775    -1697.502   -948.87688    5060.7446    2.8652688    5054.3067    298.92324   -10.711502   -1699.4133    2.8640518 
   18500      306.244   -1715.1253   -1698.0641     1263.717    5051.1844    2.8634634    5054.3176    299.07751   -11.585098   -1699.3942    2.8640539 
   18600    307.26406   -1715.6952   -1698.5771    1693.3309    5048.5567    2.8629668      5054.31    299.19627   -6.9062836   -1699.3819    2.8640525 
   18700    306.85825   -1716.0572   -1698.9618    926.91823    5049.8125    2.8632042    5054.3089    299.24426   -5.5773445    -1699.375    2.8640523 
   18800    286.84672   -1715.2237   -1699.2432     50.92074    5053.9467    2.8639853    5054.3032    299.30669   -5.9834758   -1699.3719    2.8640512 
   18900    292.80603   -1715.7709   -1699.4583   -1961.4721    5060.3947    2.8652028    5054.2953    299.31373   -5.8552265   -1699.3717    2.8640498 
   19000    293.06975   -1715.9527   -1699.6255   -1042.4198     5056.524     2.864472    5054.3019    299.27379   -11.968187   -1699.3737     2.864051 
   19100    296.99138    -1716.273   -1699.7273    987.23748    5047.6176    2.8627893     5054.284    299.25637   -9.4771083   -1699.3771    2.8640476 
   19200    290.27306   -1715.9533   -1699.7818     2597.306    5046.4572    2.8625699    5054.2659    299.22196   -6.5419357   -1699.3812    2.8640442 
   19300    292.16062    -1716.042   -1699.7654   -460.20708    5053.5032    2.8639015    5054.2538    299.18785   -6.4372998   -1699.3855     2.864042 
   19400    310.75456   -1716.9542   -1699.6417   -1147.6517    5055.6019    2.8642979     5054.243    299.15302   -5.8586169    -1699.389    2.8640399 
   19500    292.25813   -1715.5837   -1699.3017   -1027.9713    5057.6209    2.8646792    5054.2427    299.13989   -7.9447772   -1699.3901    2.8640399 
   19600    307.88954   -1715.8742   -1698.7213   -1078.0105    5054.9881     2.864182    5054.2503    299.17258   -10.293973   -1699.3863    2.8640413 
   19700     300.2779   -1714.8408    -1698.112    2902.3213    5048.2178    2.8629027    5054.2428    299.27466   -9.0073832   -1699.3761    2.8640399 
   19800    314.22519   -1715.2329   -1697.7271    775.99408    5051.8487    2.8635889     5054.242    299.40328   -5.7394819    -1699.361    2.8640398 
   19900    318.64234   -1715.3625   -1697.6106   -165.09214    5054.3744    2.8640661    5054.2558    299.52849   -6.8286425   -1699.3437    2.8640424 
Finished 300 K - next row contains averaged properties
   20000    310.42557   -1715.0587   -1697.7645    436.21663    5054.3576    2.8640629    5054.2664    299.67875   -7.1789027   -1699.3269    2.8640444 
Loop time of 5.75907 on 2 procs for 10000 steps with 432 atoms

Performance: 300.048 ns/day, 0.080 hours/ns, 1736.391 timesteps/s
99.4% CPU use with 2 MPI tasks x 1 OpenMP threads

MPI task timing breakdown:
Section |  min time  |  avg time  |  max time  |%varavg| %total
---------------------------------------------------------------
Pair    | 4.9519     | 5.093      | 5.234      |   6.3 | 88.43
Neigh   | 0.00041795 | 0.00043094 | 0.00044394 |   0.0 |  0.01
Comm    | 0.19171    | 0.33246    | 0.47322    |  24.4 |  5.77
Output  | 0.031748   | 0.031986   | 0.032225   |   0.1 |  0.56
Modify  | 0.25503    | 0.25714    | 0.25925    |   0.4 |  4.46
Other   |            | 0.04409    |            |       |  0.77

Nlocal:    216 ave 221 max 211 min
Histogram: 1 0 0 0 0 0 0 0 0 1
Nghost:    2038 ave 2049 max 2027 min
Histogram: 1 0 0 0 0 0 0 0 0 1
Neighs:    14965 ave 15586 max 14344 min
Histogram: 1 0 0 0 0 0 0 0 0 1

Total # of neighbors = 29930
Ave neighs/atom = 69.2824
Neighbor list builds = 1
Dangerous builds = 0
System init for write_data ...
Setting up Verlet run ...
  Unit style    : metal
  Current step  : 0
  Time step     : 0.002
Per MPI rank memory allocation (min/avg/max) = 4.281 | 4.281 | 4.281 Mbytes
Step Temp PotEng TotEng Press Volume 
       0          600   -1715.0587    -1681.632    3845.4384    5054.3576 
     100    451.29063   -1705.8198   -1680.6778   -101.97979     5072.415 
     200    436.18791   -1703.1173   -1678.8168    -3469.479    5088.7656 
     300    524.11129   -1706.4111   -1677.2123    -4452.656    5092.2847 
     400    471.66635   -1701.5616   -1675.2846     894.8383    5079.6071 
     500    506.90004   -1701.4095   -1673.1695    4748.8255     5064.154 
     600    566.53295   -1702.6636   -1671.1014    3260.6071    5074.6808 
     700    545.53365   -1699.4604   -1669.0681   -2081.1639    5096.8934 
     800    596.03246   -1700.3096    -1667.104   -8184.5349    5116.9003 
     900    595.77354   -1698.5859   -1665.3947   -2297.4535    5104.2897 
    1000    571.91996    -1695.644   -1663.7817    10650.124    5064.3677 
    1100    611.64682   -1696.5879   -1662.5123    9911.0179    5064.7938 
    1200    622.88529   -1696.3762   -1661.6746   -4099.9189    5111.2802 
    1300    630.51586   -1696.0887    -1660.962    -12554.44    5146.8893 
    1400      625.177   -1695.9426   -1661.1133   -3469.3723    5114.9096 
    1500     640.2464   -1697.1054   -1661.4365    10909.591    5062.5844 
    1600    611.89796   -1696.3928   -1662.3033    10638.759    5060.0358 
    1700    605.40667   -1697.2591   -1663.5312   -3806.9347    5106.1119 
    1800     588.2413   -1697.2845   -1664.5129   -10091.618     5131.407 
    1900    587.10535   -1698.2195   -1665.5112    -3207.398    5105.7431 
    2000    597.30985   -1699.4185   -1666.1417    6643.9404     5071.565 
    2100    569.15659   -1698.1651   -1666.4567    9140.5381    5064.8522 
    2200    571.73888   -1698.4187   -1666.5665    461.98996    5092.1697 
    2300    581.38885   -1698.5453   -1666.1555    -7105.703    5118.8268 
    2400    561.57434   -1696.7733   -1665.4874   -4689.7312    5112.0288 
    2500    578.43983   -1696.7848   -1664.5592    4747.7098    5082.0773 
    2600    597.63267   -1696.8212   -1663.5264    9223.0939    5066.4463 
    2700    622.58274   -1697.4939   -1662.8091    2242.3394    5090.0099 
    2800    612.82128   -1696.4198   -1662.2789   -6943.4337    5121.3308 
    2900    616.14442    -1696.422   -1662.0959   -5942.1185    5118.2947 
    3000    593.67102    -1695.332   -1662.2579    3434.4731    5090.4001 
    3100    596.24337   -1695.9926   -1662.7752    7402.2916    5074.8762 
    3200    631.23598   -1699.1938   -1664.0269    2548.7783    5085.8613 
    3300    586.10066   -1698.3653   -1665.7129   -4842.6934    5107.7272 
    3400    568.00618   -1698.4727   -1666.8285   -3819.5653    5104.4371 
    3500     587.5475   -1699.8975   -1667.1645      400.751    5088.1499 
    3600    561.95282   -1698.2832   -1666.9762    3352.4986    5078.1977 
    3700    588.12734   -1699.2866   -1666.5213    2076.2811    5085.3716 
    3800    588.93519   -1698.6655   -1665.8553   -1576.7459    5097.4919 
    3900    590.27367   -1697.9598    -1665.075   -3598.5285    5104.1014 
    4000    608.16034   -1698.2322   -1664.3509   -2855.8018      5105.06 
    4100    611.11175   -1697.8519   -1663.8062    1253.8034    5089.5406 
    4200    610.55247   -1697.4725   -1663.4579    3715.7231    5085.2393 
    4300    559.18297   -1694.4623   -1663.3096    164.28039    5100.1928 
    4400    580.28217   -1695.6125   -1663.2843    267.65728    5099.5419 
    4500    601.25319   -1696.9001   -1663.4036    317.70147    5097.0624 
    4600    581.45759   -1696.0137     -1663.62    939.39407    5092.4722 
    4700    570.61313   -1695.6922   -1663.9027    282.85585    5096.2451 
    4800    583.35672   -1696.7182   -1664.2187   -1057.6104    5100.0495 
    4900     593.2329   -1697.5854   -1664.5358   -231.62271    5096.1521 
    5000    583.12317   -1697.3653   -1664.8789    -45.97086    5092.7419 
    5100    607.26008   -1699.3978   -1665.5666   -1205.5345    5096.4981 
    5200    553.21792   -1698.1447   -1667.3243   -231.19646    5096.0681 
    5300    554.30927   -1699.7184   -1668.8373   -806.88935    5090.2285 
    5400    547.31245   -1699.8671   -1669.3757    24.833078    5088.0608 
    5500    555.04957   -1700.0866   -1669.1641    790.04755    5088.4312 
    5600    560.68164   -1699.4842    -1668.248    868.34994    5088.6941 
    5700    573.67325   -1698.8444   -1666.8844    932.95886    5088.0566 
    5800    586.21155   -1698.2963   -1665.6377   -117.11806    5092.4095 
    5900    585.80461   -1697.3056   -1664.6698   -3437.5817    5106.1668 
    6000    609.21492   -1697.8834   -1663.9434   -4938.8957    5113.0496 
    6100    583.67186   -1695.9382   -1663.4212    512.16983     5093.396 
    6200    636.44441   -1698.4036   -1662.9466     8448.975    5067.1591 
    6300    626.13855   -1697.6551   -1662.7722    4512.5971    5080.5348 
    6400    633.28796   -1698.0492   -1662.7681   -7733.6587    5121.6958 
    6500    588.96592   -1695.7929   -1662.9809   -9289.5967    5131.3174 
    6600    603.99247   -1697.3477   -1663.6986    1945.0753    5091.8062 
    6700    589.69437   -1697.5724   -1664.7199    10556.894    5060.6025 
    6800    614.06484   -1700.3206   -1666.1104    4941.0421    5074.4974 
    6900     593.0228   -1700.0857   -1667.0477   -6442.3227    5110.8869 
    7000    566.72698   -1698.9287   -1667.3557    -8551.014    5121.0699 
    7100    570.53247   -1699.0645   -1667.2795   -534.33076     5096.491 
    7200    606.01657   -1700.4276   -1666.6657    6495.7673     5069.325 
    7300    579.89045   -1698.0879   -1665.7816    6521.2941    5073.6593 
    7400    594.83351   -1697.9947   -1664.8559   -1436.2469    5101.2884 
    7500    584.23139   -1696.7467   -1664.1985   -5207.9571    5116.4917 
    7600    597.80622   -1697.2728   -1663.9684   -4654.7566    5110.7607 
    7700    602.83105   -1697.4748   -1663.8904     2664.312    5089.6207 
    7800    591.25277   -1696.7906   -1663.8512    4412.9155    5081.5572 
    7900    584.64493   -1696.5004   -1663.9291    292.92463     5097.471 
    8000    624.17657   -1698.7708   -1663.9972   -6582.1759    5117.3319 
    8100    587.84331   -1696.9556   -1664.2062   -3270.6039    5108.1089 
    8200    611.76661   -1698.5056   -1664.4234    2201.8527    5087.8314 
    8300    579.84579   -1697.0714   -1664.7675    2964.6062     5088.003 
    8400    605.28689   -1698.9802    -1665.259   -387.73392    5098.0938 
    8500    571.18851    -1697.681   -1665.8595   -1201.4395    5097.2817 
    8600    562.36717   -1697.7956   -1666.4655   -957.36048    5097.6939 
    8700    576.76784   -1699.0545   -1666.9221   -572.57629    5095.6795 
    8800    609.66231   -1701.0656   -1667.1006    1157.5301    5089.1068 
    8900    594.28691   -1699.9259   -1666.8175    4302.6227    5074.7499 
    9000     570.9197   -1697.8035   -1665.9969    2421.0124    5086.7912 
    9100    613.92522   -1698.7937   -1664.5913   -6779.8739    5119.1354 
    9200    587.75965   -1696.0686   -1663.3239   -8484.4898    5128.0572 
    9300    594.76871   -1695.7756   -1662.6403    4926.2526    5084.4229 
    9400    612.48495   -1696.3087   -1662.1865    14006.006     5052.784 
    9500    630.53637   -1697.4953   -1662.3674    2960.0147    5089.3821 
    9600    601.21158   -1696.0313   -1662.5371   -8036.6321    5127.9429 
    9700    599.89686   -1696.4862   -1663.0652    -7390.583    5124.6596 
    9800    625.94312   -1698.7793   -1663.9073   -1543.0808    5095.8038 
    9900    588.50366   -1697.5862      -1664.8    8024.7442    5068.5225 
   10000    598.64223   -1699.2286   -1665.8775    6414.1826    5075.1876 
Loop time of 5.17319 on 2 procs for 10000 steps with 432 atoms

Performance: 334.030 ns/day, 0.072 hours/ns, 1933.045 timesteps/s
99.3% CPU use with 2 MPI tasks x 1 OpenMP threads

MPI task timing breakdown:
Section |  min time  |  avg time  |  max time  |%varavg| %total
---------------------------------------------------------------
Pair    | 4.5692     | 4.6851     | 4.8011     |   5.4 | 90.57
Neigh   | 0.00041008 | 0.00042653 | 0.00044298 |   0.0 |  0.01
Comm    | 0.16925    | 0.28539    | 0.40153    |  21.7 |  5.52
Output  | 0.029053   | 0.029229   | 0.029405   |   0.1 |  0.57
Modify  | 0.13461    | 0.13626    | 0.13792    |   0.4 |  2.63
Other   |            | 0.03674    |            |       |  0.71

Nlocal:    216 ave 225 max 207 min
Histogram: 1 0 0 0 0 0 0 0 0 1
Nghost:    2002 ave 2009 max 1995 min
Histogram: 1 0 0 0 0 0 0 0 0 1
Neighs:    15152 ave 15811 max 14493 min
Histogram: 1 0 0 0 0 0 0 0 0 1

Total # of neighbors = 30304
Ave neighs/atom = 70.1481
Neighbor list builds = 1
Dangerous builds = 0
Setting up Verlet run ...
  Unit style    : metal
  Current step  : 10000
  Time step     : 0.002
Per MPI rank memory allocation (min/avg/max) = 4.281 | 4.281 | 4.281 Mbytes
Step Temp PotEng TotEng Press Volume v_my_lx f_1 f_2 f_3 f_4 f_5 
   10000    598.64223   -1699.2286   -1665.8775    6414.1826    5075.1876     2.867992            0            0            0            0            0 
   10100    573.88579   -1698.8522   -1666.8804   -2249.7173    5100.2073    2.8726971    5094.3801      582.427   -192.55854   -1666.3851    2.8715993 
   10200    564.08292   -1699.0438   -1667.6181   -5483.6254    5113.1997    2.8751344    5092.4318    578.21256     385.4233   -1666.8284    2.8712336 
   10300    578.00542   -1700.4344   -1668.2331   -2991.8194    5101.6064    2.8729598    5090.6201    574.62171     709.6283   -1667.1994    2.8708932 
   10400    558.09183   -1699.9308   -1668.8388     4161.717    5075.6686    2.8680826    5090.5553    571.40302    468.48933   -1667.5297    2.8708808 
   10500    555.47288   -1700.3061   -1669.3601     5720.831    5069.2568    2.8668744    5091.2537    568.84176    117.53881   -1667.8524    2.8710122 
   10600    558.66504   -1700.4654   -1669.3415    716.01901    5090.4818      2.87087    5091.3787    566.57995    6.9484017   -1668.1128    2.8710357 
   10700    556.72383   -1699.5156   -1668.4999   -4595.1281    5105.0846    2.8736125    5090.9408    565.44219    93.996283   -1668.2365    2.8709536 
   10800    582.70378   -1699.5557   -1667.0927   -2037.3404    5101.6127     2.872961    5090.6346    566.00055     205.3891   -1668.1839    2.8708963 
   10900    563.99946   -1697.1071   -1665.6861    4339.6944     5084.088    2.8696675    5091.1752    568.19212    165.74612   -1667.9806     2.870998 
   11000    597.40521   -1697.8733   -1664.5912    3503.7871    5083.9162    2.8696352     5091.924    570.55911    47.235313   -1667.6942    2.8711388 
   11100    615.40713   -1698.0515   -1663.7665   -1309.0992    5102.9175    2.8732059    5092.4524    572.79068    24.434364   -1667.3735    2.8712382 
   11200    637.50858   -1698.6444   -1663.1281   -4790.4227    5109.7129    2.8744807    5092.5987    575.89754    91.927301   -1667.0447    2.8712658 
   11300    589.39866    -1695.531    -1662.695     746.6167    5095.4698    2.8718074    5092.8366    578.38921    118.85402   -1666.7249    2.8713106 
   11400    613.16121    -1696.615   -1662.4551     1516.039    5092.5267    2.8712544    5093.2218     581.1213    83.773453   -1666.4264     2.871383 
   11500    639.37869   -1698.0743   -1662.4538    1931.7492    5092.5171    2.8712526    5093.6924     583.3467    34.722841   -1666.1606    2.8714716 
   11600    584.02889   -1695.3328   -1662.7959    1271.8731    5095.7442    2.8718589    5093.9942    585.13658    20.476693   -1665.9382    2.8715283 
   11700    613.21795    -1697.702   -1663.5389    -2071.492    5104.3904    2.8734823    5094.1917    586.73432    30.350569   -1665.7729    2.8715655 
   11800    588.90719    -1697.456   -1664.6473   -1873.6072    5103.2069    2.8732602    5094.1744    587.55199    71.012965    -1665.678    2.8715623 
   11900    596.65308   -1699.0404   -1665.8002    2528.8029    5086.4514    2.8701121    5094.2013    587.54977     63.37444   -1665.6549    2.8715674 
   12000    598.04955   -1699.9681   -1666.6501    1354.1716    5084.7771    2.8697972    5094.2504    587.06351    27.939368   -1665.6862    2.8715767 
   12100    556.42246   -1698.0164   -1667.0175   -845.47516    5093.7684    2.8714877    5094.1549    586.96145    15.124218   -1665.7426    2.8715588 
   12200    560.30168   -1698.1633   -1666.9483    -1889.239    5100.1839    2.8726927    5093.9917    586.41795    30.240946   -1665.8004    2.8715282 
   12300    595.37402   -1699.6738   -1666.5048   -1834.3015    5094.0485    2.8715403    5093.8297    586.04036     47.55112    -1665.842    2.8714978 
   12400    568.65154   -1697.4167   -1665.7365    1389.0332    5087.6835    2.8703438    5093.8055      585.969    34.735534   -1665.8546    2.8714933 
   12500    578.48833   -1697.0428   -1664.8145   -576.28248     5096.646    2.8720283    5093.8899    586.15951    13.838143   -1665.8312    2.8715092 
   12600     626.0858   -1698.9241   -1664.0441   -2822.9643    5102.1265    2.8730574    5093.8702    586.66252     26.81736   -1665.7758    2.8715056 
   12700     623.1579   -1698.4327   -1663.7159   -1357.8941    5101.2385    2.8728907    5093.9169    587.32789     45.99415   -1665.7043    2.8715144 
   12800    627.45917   -1698.5981   -1663.6416    1269.6241    5088.3212    2.8704638    5094.0777     587.9381    25.162059   -1665.6315    2.8715446 
   12900    554.87114   -1694.6115    -1663.699    1032.8126    5095.4559    2.8718048    5094.2412    588.54647    2.9046114   -1665.5635    2.8715754 
   13000    630.26678   -1698.9002   -1663.7873   -2095.9742    5104.5272     2.873508    5094.3815    589.10538    5.8938176   -1665.5025    2.8716017 
   13100     619.8648   -1698.4793   -1663.9459   -2123.6799    5102.1478    2.8730614    5094.3653     589.4539    30.375833   -1665.4497    2.8715987 
   13200    572.21403   -1696.0661   -1664.1874    1547.7053    5088.6832    2.8705318    5094.3937    589.82883    30.718111   -1665.4062     2.871604 
   13300    578.39463   -1696.6986   -1664.4756    2473.3054    5087.1923    2.8702515    5094.4416      590.146    12.900083   -1665.3734    2.8716131 
   13400    657.36559   -1701.4094   -1664.7868   -1632.9379    5097.3979    2.8721696    5094.4417    590.27495     6.815902   -1665.3517    2.8716131 
   13500    589.94861   -1698.0049   -1665.1382   -1898.3574    5096.7706    2.8720517    5094.3408    590.25511    21.456193   -1665.3408    2.8715942 
   13600    587.81512   -1698.2549    -1665.507   -757.39316    5092.5643    2.8712614    5094.2531    590.42535    21.599425   -1665.3401    2.8715777 
   13700    607.41391   -1699.6683   -1665.8286    358.76553    5089.4016    2.8706669    5094.2521     590.3262    10.807693    -1665.349    2.8715776 
   13800    585.15893   -1698.6654   -1666.0655    -1270.828    5097.6524    2.8722174    5094.1797    590.20354    11.775068   -1665.3652     2.871564 
   13900    597.53212   -1699.3969   -1666.1077   -681.16039    5095.0764    2.8717335    5094.0964    589.92586    23.915897   -1665.3843    2.8715484 
   14000    569.75262   -1697.5218   -1665.7802    1728.7882    5085.0216    2.8698432    5094.0953     589.8462    13.599265    -1665.399    2.8715482 
   14100    581.63113   -1697.4352   -1665.0319    591.90062    5093.3802    2.8714148    5094.1355    589.79479   -1.7370617      -1665.4    2.8715557 
   14200    635.31219   -1699.2995   -1663.9056   -2754.8981    5104.5221     2.873507    5094.1132    589.99274    5.6009017   -1665.3782    2.8715515 
   14300    626.89252   -1697.7596   -1662.8347   -2692.7653    5103.1907    2.8732571     5094.076    590.41319    23.667743    -1665.331    2.8715446 
   14400    590.85503   -1694.9786   -1662.0614    3699.5941    5086.0019    2.8700276     5094.191    590.99413     18.32681   -1665.2645    2.8715661 
   14500    626.00707   -1696.5765   -1661.7009    3175.3056    5090.7935    2.8709286    5094.3765    591.56321   -3.3121351   -1665.1887     2.871601 
   14600    615.10512   -1696.0126   -1661.7444   -2518.0229    5107.4885    2.8740635    5094.4694    592.27405   -5.8317123   -1665.1126    2.8716184 
   14700     576.9269   -1694.3289   -1662.1876   -4254.0708    5113.7204     2.875232    5094.4751    592.70138    16.146631   -1665.0451    2.8716195 
   14800    607.91686   -1697.0465   -1663.1788   -57.913982    5098.4989    2.8723763    5094.4964    593.16201    30.362491   -1664.9949    2.8716235 
   14900    597.76807   -1697.9611   -1664.6588    4503.1848    5078.9309    2.8686969    5094.5452    593.47461    21.030397   -1664.9723    2.8716326 
   15000    587.38549   -1698.7216   -1665.9977    4838.3424    5075.9903    2.8681432    5094.6129    593.35217   -4.9343035   -1664.9808    2.8716453 
   15100    622.46334   -1701.2664   -1666.5883   -1757.1822    5095.0699    2.8717322    5094.5982    593.13618   -16.873221   -1665.0078    2.8716425 
   15200    591.13005   -1699.4997   -1666.5671   -7910.7728    5117.9061    2.8760162    5094.5283    592.89684   -3.2265716   -1665.0386    2.8716294 
   15300    565.26907   -1697.8178   -1666.3261   -6771.2584    5117.4007    2.8759216    5094.3994    592.72675    31.121224   -1665.0659    2.8716051 
   15400     580.6531   -1698.2255   -1665.8767    6268.9601    5076.4397    2.8682278    5094.3618     592.5461    42.004802   -1665.0848    2.8715979 
   15500    601.78111   -1698.6647   -1665.1388    11580.057    5057.9555    2.8647423     5094.483    592.44406     2.820713   -1665.0932    2.8716205 
   15600    587.90486   -1697.2829   -1664.5301    3202.4158    5086.2972    2.8700831    5094.6174    592.44103   -29.799621   -1665.0887    2.8716457 
   15700    585.58756   -1696.3441   -1663.7203   -8846.8026    5125.9573    2.8775236    5094.5753    592.68444   -10.641283   -1665.0711    2.8716376 
   15800    634.33318   -1698.4583   -1663.1189   -7603.0344    5122.0265    2.8767879    5094.4893    592.90304    28.082103   -1665.0427    2.8716214 
   15900    634.95535   -1698.0532   -1662.6792    3796.0876    5081.7109    2.8692202    5094.5522     593.1659    28.780161    -1665.006    2.8716331 
   16000    594.14602   -1695.5376    -1662.437    7952.9769    5073.2562    2.8676281    5094.7247    593.57854   -3.3436542   -1664.9651    2.8716655 
   16100    595.16985   -1695.6721   -1662.5145   -314.96897    5102.8459    2.8731924    5094.8328    593.88115   -15.754485   -1664.9238    2.8716858 
   16200    608.56395   -1696.8282   -1662.9244   -5724.7684    5118.3027    2.8760905    5094.8528    594.17411    2.5643655   -1664.8873    2.8716895 
   16300    587.10603   -1697.0001   -1664.2917   -2207.3473    5104.4598    2.8734953    5094.8442    594.40121    20.978417   -1664.8659    2.8716879 
   16400    604.23159    -1699.606   -1665.9436    1971.4456    5085.8764     2.870004    5094.8683    594.35283    15.837702   -1664.8703    2.8716924 
   16500    577.32747   -1699.1163   -1666.9527    1977.7436    5085.7589    2.8699819    5094.8983    594.12597    1.4489255   -1664.8957    2.8716981 
   16600    568.37564   -1698.9992   -1667.3343   -1515.7688    5097.0438    2.8721031     5094.846     593.8382    2.4756432   -1664.9305    2.8716883 
   16700     582.2765   -1699.6571   -1667.2178    -911.7801    5097.1171    2.8721168    5094.7892    593.51804    8.7186351    -1664.966    2.8716776 
   16800    591.85126   -1699.6317    -1666.659    -488.2089    5092.6513    2.8712778    5094.7637     593.2805    8.2188839   -1664.9955    2.8716729 
   16900    580.99983   -1698.0591   -1665.6909    -341.4948    5094.6557    2.8716544     5094.746    593.11415    5.2390819    -1665.013    2.8716696 
   17000    610.01334   -1698.5336   -1664.5491   -395.40141     5098.425    2.8723625    5094.7177    593.11529    10.258551   -1665.0144    2.8716643 
   17100    612.03909   -1697.7198   -1663.6225     1915.664    5088.0334    2.8704096    5094.7269    593.25204    9.8981671   -1665.0008     2.871666 
   17200     569.5186   -1694.8344   -1663.1059    1220.8887    5092.4721    2.8712441    5094.7873    593.41585    0.1508951   -1664.9776    2.8716774 
   17300    647.29752   -1698.9508   -1662.8891   -1547.2818    5100.9034    2.8728278    5094.8182    593.64492  -0.89505999   -1664.9501    2.8716832 
   17400    594.68815   -1696.0416   -1662.9109   -249.80686    5100.3618    2.8727261    5094.8144    593.89133    5.5977579   -1664.9223    2.8716825 
   17500     580.5488   -1695.4559   -1663.1128    123.20757    5095.4599    2.8718055     5094.836    594.12544    7.5027061   -1664.8966    2.8716866 
   17600    651.42952   -1699.7189    -1663.427     740.5872    5093.6689     2.871469    5094.8645    594.26864    6.1249085    -1664.875     2.871692 
   17700    604.57767   -1697.5343   -1663.8526    3022.6412    5086.7153    2.8701618    5094.8783    594.39779    4.7410805   -1664.8589    2.8716946 
   17800    587.05334    -1697.071   -1664.3656    1480.6986    5093.2623    2.8713926    5094.8996    594.50054    -2.526398   -1664.8493    2.8716986 
   17900    603.94939   -1698.6528   -1665.0061   -3941.0531    5104.3178    2.8734687    5094.8923    594.52221   -0.9702803    -1664.847    2.8716972 
   18000    601.66821   -1699.5635   -1666.0439   -3203.8078    5102.2167    2.8730743      5094.84    594.46448    8.8733227   -1664.8549    2.8716874 
   18100    576.36404   -1699.8661   -1667.7562    819.69353    5088.3938    2.8704774     5094.784    594.24651    13.052796   -1664.8797    2.8716769 
   18200    586.24296   -1701.8211   -1669.1608    5180.8203    5070.9127    2.8671865    5094.7583    593.83454    6.1054449   -1664.9245    2.8716721 
   18300    548.16494   -1700.1385   -1669.5996    3255.3478    5080.2153    2.8689387    5094.7394    593.36474    -9.181333   -1664.9792    2.8716685 
   18400    567.73064   -1700.8468   -1669.2179   -5076.1873    5104.4245    2.8734887    5094.6703    592.92764   -8.4312576   -1665.0324    2.8716555 
   18500    575.82144   -1700.4429   -1668.3632     -5398.38    5109.6962    2.8744776    5094.5536     592.4985    9.8903994    -1665.077    2.8716336 
   18600    552.09002   -1698.1575      -1667.4    1078.7715     5088.025    2.8704081    5094.4625    592.26625    18.831216   -1665.1094    2.8716164 
   18700    591.68157   -1699.4461   -1666.4828     7241.261    5066.8669    2.8664238    5094.4755    592.08557    6.2643664   -1665.1303    2.8716188 
   18800    606.30172   -1699.5774   -1665.7997    2053.4663    5081.3042    2.8691437    5094.5377    591.97144   -15.940883   -1665.1418    2.8716305 
   18900    589.85328   -1697.9248   -1665.0634   -5692.6901     5117.399    2.8759212    5094.5044    591.91461   -11.768312   -1665.1448    2.8716242 
   19000    573.89218   -1696.3411   -1664.3689   -8976.4531    5123.3842     2.877042    5094.4224    591.97855    12.084471   -1665.1402    2.8716087 
   19100    611.68514   -1697.8821   -1663.8044    1639.4472    5090.6027    2.8708927    5094.3998    592.07794    21.840827   -1665.1283    2.8716044 
   19200    627.46022    -1698.191   -1663.2345    7340.4082    5070.9513    2.8671938      5094.47     592.2211     6.034263   -1665.1107    2.8716176 
   19300    615.03604   -1697.1916   -1662.9273    3945.0707    5084.1328     2.869676    5094.5443    592.39459   -9.0916741   -1665.0889    2.8716315 
   19400    589.64662   -1695.5935   -1662.7436   -4543.1991    5111.5714    2.8748292    5094.5728    592.60624   -9.0320923   -1665.0646    2.8716369 
   19500    626.03098   -1697.5851   -1662.7082   -5660.4193    5115.9225    2.8756446    5094.5644     592.8592    3.8078022   -1665.0398    2.8716353 
   19600    612.03734    -1697.164   -1663.0667    66.169922    5099.4796    2.8725605    5094.5643    593.04612    12.317234    -1665.017    2.8716353 
   19700    590.55777   -1696.8965   -1663.9959    5044.0142    5080.4295     2.868979    5094.5883    593.14481    9.0945675   -1665.0012    2.8716398 
   19800    577.78783   -1697.5988   -1665.4096    4858.3039    5080.0022    2.8688986     5094.637    593.15249   -3.5619704   -1664.9982    2.8716489 
   19900    578.07746   -1698.8176   -1666.6123   -2025.0177    5098.7573    2.8724249    5094.6292    593.08863   -8.2125005   -1665.0089    2.8716475 
Finished 600 K - next row contains averaged properties
   20000     567.5038   -1698.7801   -1667.1638   -4756.9347    5106.8487    2.8739435    5094.5762    592.93705  -0.75410982   -1665.0282    2.8716375 
Loop time of 5.92974 on 2 procs for 10000 steps with 432 atoms

Performance: 291.413 ns/day, 0.082 hours/ns, 1686.416 timesteps/s
99.4% CPU use with 2 MPI tasks x 1 OpenMP threads

MPI task timing breakdown:
Section |  min time  |  avg time  |  max time  |%varavg| %total
---------------------------------------------------------------
Pair    | 5.1498     | 5.2771     | 5.4044     |   5.5 | 88.99
Neigh   | 0.00041199 | 0.00042856 | 0.00044513 |   0.0 |  0.01
Comm    | 0.19438    | 0.32202    | 0.44965    |  22.5 |  5.43
Output  | 0.029263   | 0.029507   | 0.029752   |   0.1 |  0.50
Modify  | 0.25467    | 0.25667    | 0.25866    |   0.4 |  4.33
Other   |            | 0.04401    |            |       |  0.74

Nlocal:    216 ave 223 max 209 min
Histogram: 1 0 0 0 0 0 0 0 0 1
Nghost:    1973.5 ave 1985 max 1962 min
Histogram: 1 0 0 0 0 0 0 0 0 1
Neighs:    15021 ave 15596 max 14446 min
Histogram: 1 0 0 0 0 0 0 0 0 1

Total # of neighbors = 30042
Ave neighs/atom = 69.5417
Neighbor list builds = 1
Dangerous builds = 0
System init for write_data ...
Setting up Verlet run ...
  Unit style    : metal
  Current step  : 0
  Time step     : 0.002
Per MPI rank memory allocation (min/avg/max) = 4.281 | 4.281 | 4.281 Mbytes
Step Temp PotEng TotEng Press Volume 
       0          900   -1698.7801   -1648.6401   -882.62181    5106.8487 
     100    765.53193   -1690.1427   -1647.4941   -3041.7384     5127.034 
     200    773.17513   -1687.8855    -1644.811   -2767.6921    5131.3857 
     300    786.84468    -1686.517    -1642.681    4580.2198    5111.1812 
     400    811.30418   -1685.5839   -1640.3852   -3352.7825    5138.7533 
     500    804.67663   -1682.5988   -1637.7694   -1447.1583    5139.8658 
     600     880.1377   -1684.1596   -1635.1261    4058.5058    5117.8694 
     700    893.14459   -1682.3977   -1632.6396   -8162.2724    5163.4705 
     800    870.35596   -1678.9152   -1630.4267    1227.4552    5139.9032 
     900    889.67865   -1677.8999   -1628.3349    9477.9355    5117.5448 
    1000    926.96359   -1678.1909   -1626.5487   -10189.065    5196.3241 
    1100    923.19329   -1676.7951    -1625.363    6103.7653    5131.2076 
    1200    887.97582   -1673.9678   -1624.4977    7238.7713    5133.1248 
    1300    926.63212   -1675.6166   -1623.9929   -13025.989    5204.9308 
    1400    960.02321   -1677.8068   -1624.3228    11135.805    5113.7174 
    1500    904.21167   -1675.8035   -1625.4289   -180.38527    5158.6002 
    1600    943.22024    -1679.325   -1626.7772   -9638.1078    5182.6033 
    1700    881.11225   -1677.3579   -1628.2702     8819.411    5114.5924 
    1800    884.99963   -1679.0054   -1629.7011    -4288.324    5162.0569 
    1900    890.69678    -1680.272   -1630.6503   -3968.2489    5155.6278 
    2000    876.61522   -1680.0117   -1631.1744    7893.2507    5111.4602 
    2100    814.95212   -1676.7241   -1631.3222   -5052.2815    5169.3775 
    2200    869.19642   -1679.4185   -1630.9946   -200.67522    5135.7844 
    2300    890.32019   -1679.5628   -1629.9621    2757.2669    5136.9279 
    2400    874.24296   -1676.7809   -1628.0759   -2674.7638     5162.263 
    2500    905.37685   -1676.3493   -1625.9097    3100.1669    5139.3252 
    2600    917.29948   -1675.6207   -1624.5169   -817.00678    5157.3312 
    2700     915.2052   -1675.0023   -1624.0151   -2412.1095    5165.1369 
    2800    906.69338   -1674.7161   -1624.2032    3264.8138    5137.1678 
    2900      915.216   -1675.8189   -1624.8312    -2356.625    5162.6873 
    3000    913.83045   -1676.6739   -1625.7634   -2438.3034    5156.4698 
    3100    889.34168   -1676.2755   -1626.7293     5952.336    5135.0654 
    3200    944.00152   -1680.2569   -1627.6655   -2877.8168    5160.2736 
    3300     903.1105    -1678.721   -1628.4077    2982.1997     5133.129 
    3400    900.58574   -1679.0956   -1628.9229   -1012.1179    5145.5888 
    3500    853.42653   -1676.6241   -1629.0787   -5669.0961    5174.4601 
    3600    890.61286   -1678.6599   -1629.0428    10159.756    5110.2628 
    3700    890.27638   -1678.6141   -1629.0158   -2075.4024    5158.1503 
    3800    859.86078    -1676.664   -1628.7602   -5141.0716    5161.3271 
    3900    908.54512   -1679.1069   -1628.4908    5837.8283    5126.4902 
    4000    908.21833   -1678.8732   -1628.2753   -3130.4715    5155.1637 
    4100    845.56062    -1675.193   -1628.0859   -2547.6934     5161.628 
    4200    936.27027   -1680.0635   -1627.9029     5223.607    5128.1683 
    4300    911.62268    -1678.707   -1627.9194   -4958.2982     5164.356 
    4400    924.78132   -1679.5222   -1628.0016   -3524.0223     5158.331 
    4500    870.71432   -1676.4543   -1627.9459    8024.4304    5121.4344 
    4600    923.50194     -1679.38   -1627.9307   -8761.5487    5175.9721 
    4700    892.23938   -1677.6557   -1627.9481    2353.8665    5141.4289 
    4800    907.47723   -1678.4471   -1627.8905    4657.3122      5131.88 
    4900    866.63859   -1676.1419   -1627.8605   -6475.3242    5174.0635 
    5000    881.38578   -1677.0807   -1627.9777    4927.0572    5127.9284 
    5100     903.7256    -1678.509   -1628.1614   -641.38859    5146.5935 
    5200    869.20361   -1676.9119   -1628.4876   -5799.8252    5172.7134 
    5300    895.22568   -1679.0242   -1629.1502    9035.8792    5111.2026 
    5400    893.54821   -1680.0458   -1630.2652   -3027.9112    5155.6653 
    5500    856.41048   -1678.9755    -1631.264   -6608.8234    5169.9776 
    5600    907.16018   -1682.5206   -1631.9817    10419.547    5102.3567 
    5700    848.56875   -1679.8144   -1632.5397    -7879.951    5172.6682 
    5800    901.60768   -1682.6673   -1632.4377    -2766.178    5150.3008 
    5900    861.90237   -1679.4616    -1631.444    12520.611     5104.391 
    6000    871.99835   -1678.3807   -1629.8007   -10627.407    5184.7702 
    6100    919.58705   -1679.1444   -1627.9132    2314.5092    5138.7373 
    6200    939.25407   -1678.7832   -1626.4563     4848.923    5129.7675 
    6300    914.30565    -1676.635    -1625.698   -9362.5995    5189.3145 
    6400    926.67663   -1677.2503   -1625.6241    7378.0752    5129.1963 
    6500    906.32669   -1676.4564   -1625.9639    2716.8126    5146.4218 
    6600    906.20529    -1676.895   -1626.4093   -6530.5206     5172.012 
    6700     871.4403   -1675.6918   -1627.1429    7298.0657    5127.9665 
    6800    875.90747   -1676.9512   -1628.1534   -616.87541    5157.4365 
    6900    849.52549   -1676.5907   -1629.2627   -335.10404    5150.9672 
    7000    888.22233     -1680.06   -1630.5762     2142.419     5136.313 
    7100     854.1959   -1680.1697   -1632.5815    -1865.683    5143.1886 
    7200     837.4662   -1681.8075   -1635.1513    1163.0021    5138.3015 
    7300    818.92516   -1682.3533   -1636.7301    2146.3473    5131.7501 
    7400    857.70195   -1684.6752   -1636.8916   -2585.9111    5138.0733 
    7500    827.00989   -1682.1869   -1636.1133    -1346.114    5139.6938 
    7600    817.79113   -1680.5348   -1634.9748   -1153.4951     5145.429 
    7700    873.56531   -1682.3964   -1633.7291     1857.093     5136.077 
    7800    849.19138   -1679.7752   -1632.4658    1332.9026     5141.459 
    7900    866.76273   -1679.4407   -1631.1524    -4059.546     5155.633 
    8000    877.27452   -1678.7064   -1629.8324    1047.7464    5145.0616 
    8100    898.85906   -1678.6881   -1628.6116    2248.0437    5138.3894 
    8200    900.72162   -1677.7796   -1627.5994   -4738.6688    5169.0109 
    8300    971.98851   -1680.9731   -1626.8226    1794.2599    5134.4075 
    8400    938.55794   -1678.6362   -1626.3481   -67.366307    5152.5999 
    8500    901.11102   -1676.2751   -1626.0732   -5598.5417    5171.6308 
    8600    922.57351   -1677.4853   -1626.0877    6979.3013    5126.0865 
    8700    901.78223   -1676.8834   -1626.6441   -2671.2585    5161.4636 
    8800    900.69594   -1678.1706   -1627.9918   -5064.5934    5165.6297 
    8900    908.81588   -1680.6471   -1630.0159    11890.128    5098.3958 
    9000    874.36931   -1680.6309   -1631.9188   -11771.715    5183.0013 
    9100    833.46208   -1679.3624   -1632.9293    1099.9697      5136.78 
    9200    834.31885   -1679.4176   -1632.9368    8408.2696    5116.5711 
    9300    834.21677   -1678.7625   -1632.2873   -8615.6891    5174.0432 
    9400    872.34471   -1679.7071   -1631.1078    5507.9225    5129.0254 
    9500    890.27841   -1679.1057   -1629.5073    3102.8505    5136.2198 
    9600    894.28829   -1677.8879   -1628.0661   -9147.3483     5181.452 
    9700    847.16987   -1674.4905   -1627.2937    9013.7624    5120.9773 
    9800    889.28249   -1676.6288   -1627.0858   -1440.0159     5158.358 
    9900    884.86525   -1676.3603   -1627.0635   -3320.4351    5170.4065 
   10000    972.26514   -1681.3425   -1627.1765    5200.5658    5125.6829 
Loop time of 5.226 on 2 procs for 10000 steps with 432 atoms

Performance: 330.655 ns/day, 0.073 hours/ns, 1913.510 timesteps/s
99.6% CPU use with 2 MPI tasks x 1 OpenMP threads

MPI task timing breakdown:
Section |  min time  |  avg time  |  max time  |%varavg| %total
---------------------------------------------------------------
Pair    | 4.689      | 4.7718     | 4.8545     |   3.8 | 91.31
Neigh   | 0.00041509 | 0.000422   | 0.00042892 |   0.0 |  0.01
Comm    | 0.167      | 0.24934    | 0.33167    |  16.5 |  4.77
Output  | 0.030766   | 0.030948   | 0.03113    |   0.1 |  0.59
Modify  | 0.13563    | 0.13683    | 0.13803    |   0.3 |  2.62
Other   |            | 0.03671    |            |       |  0.70

Nlocal:    216 ave 220 max 212 min
Histogram: 1 0 0 0 0 0 0 0 0 1
Nghost:    1924 ave 1936 max 1912 min
Histogram: 1 0 0 0 0 0 0 0 0 1
Neighs:    15088 ave 15333 max 14843 min
Histogram: 1 0 0 0 0 0 0 0 0 1

Total # of neighbors = 30176
Ave neighs/atom = 69.8519
Neighbor list builds = 1
Dangerous builds = 0
Setting up Verlet run ...
  Unit style    : metal
  Current step  : 10000
  Time step     : 0.002
Per MPI rank memory allocation (min/avg/max) = 4.281 | 4.281 | 4.281 Mbytes
Step Temp PotEng TotEng Press Volume v_my_lx f_1 f_2 f_3 f_4 f_5 
   10000    972.26514   -1681.3425   -1627.1765    5200.5658    5125.6829    2.8774722            0            0            0            0            0 
   10100    943.13704   -1680.0667   -1627.5235   -7119.5656    5165.5395    2.8849113    5154.9562    912.12944   -1187.9936   -1627.3502    2.8829357 
   10200    917.92061   -1679.0737   -1627.9353   -2030.7737    5156.3884    2.8832067    5147.5304    907.91612    786.43577   -1627.5305    2.8815513 
   10300    884.73247   -1677.7252   -1628.4357    6328.2379    5129.7966    2.8782418    5150.1626     904.9063   -70.483074   -1627.7468    2.8820426 
   10400    846.85769   -1676.3777   -1629.1983   -3370.9473    5160.1653    2.8839104    5149.7235    902.76385   -83.008618   -1628.0093    2.8819611 
   10500    888.47638   -1679.8056   -1630.3076    2774.5403     5134.907    2.8791973    5147.4365    900.60826    229.47633   -1628.3477    2.8815344 
   10600    902.19676   -1682.2006   -1631.9382    1310.1898    5138.4328    2.8798561    5147.8926    895.40958   -101.33395   -1628.8067    2.8816198 
   10700    880.05605   -1682.7057   -1633.6768   -4456.7439    5152.9939    2.8825738    5147.0737    890.49629    -47.71678   -1629.3845    2.8814672 
   10800    880.83192   -1683.9195   -1634.8474    -2542.595    5140.9836    2.8803326    5145.8141    886.17407    92.586277   -1630.0035    2.8812322 
   10900    813.27187   -1680.4798   -1635.1715    2306.6076    5129.7116    2.8782259    5145.2689    881.12359   -25.255682   -1630.5687    2.8811306 
   11000    815.59119   -1679.9208   -1634.4833   -2409.1641     5149.103    2.8818481    5144.6231    877.75827   -41.257571    -1631.004    2.8810102 
   11100     874.9067   -1681.2237   -1632.4816    2944.1381    5136.1216    2.8794243    5143.6885    876.10642    98.714253   -1631.2383    2.8808357 
   11200    914.22769   -1680.8049   -1629.8722    2089.0427    5135.0813    2.8792299     5144.159    876.24956   -69.954784   -1631.2292    2.8809236 
   11300    922.42779   -1679.8115    -1628.422   -4991.7864    5168.4381    2.8854508    5144.3442     877.4671   -24.394234   -1631.0614    2.8809581 
   11400    862.83355   -1675.8284    -1627.759    6176.6841    5138.4898    2.8798668    5144.3056    878.64975     109.3302   -1630.8457    2.8809509 
   11500    932.55146   -1679.2415    -1627.288     2432.575    5140.7826     2.880295    5145.3771    880.10884    -87.17525    -1630.623    2.8811507 
   11600     905.9574   -1677.4276   -1626.9557   -6832.7977    5175.5508    2.8867738    5145.5282    881.77042     1.890588   -1630.4033    2.8811789 
   11700    942.35534    -1679.293   -1626.7933    5126.6632    5129.7474    2.8782326    5145.6155    883.85307     67.75789   -1630.1946     2.881195 
   11800    923.62284   -1678.3657   -1626.9097   -1577.3068    5154.9656    2.8829414    5146.6317     884.9535   -117.45815    -1630.008    2.8813845 
   11900    925.67898   -1678.7674   -1627.1968   -5689.4382    5171.2425    2.8859726    5146.1751    886.44827     72.35941   -1629.8499    2.8812992 
   12000    874.63368   -1676.4875   -1627.7607    12636.842    5110.5869    2.8746446    5146.5555    887.70154    18.665412   -1629.7307    2.8813698 
   12100    894.61749   -1678.7609   -1628.9207   -5671.1381     5168.365    2.8854372    5147.3723    887.89334   -161.98498   -1629.6631    2.8815217 
   12200    888.03247   -1679.6715   -1630.1982   -5133.8344    5166.7994    2.8851458    5146.2952    888.14398    138.26518   -1629.6546    2.8813203 
   12300    922.68211   -1682.7425   -1631.3388    14834.331    5089.0249    2.8705961    5146.8017     887.6874   -33.139889   -1629.7046    2.8814142 
   12400    851.51316   -1680.0024   -1632.5636   -11754.443    5183.1507    2.8881861     5146.844    886.58807   -97.173882   -1629.8021    2.8814215 
   12500    862.65095   -1681.3965   -1633.3372   -1266.8749    5144.5076    2.8809906     5145.762    885.86551    142.10686    -1629.929     2.881219 
   12600    856.26416    -1680.915   -1633.2115    9122.7741    5104.0066    2.8734103    5146.2748    884.49369   -63.195496   -1630.0593    2.8813145 
   12700    903.09473   -1682.5352   -1632.2227    -8891.386    5172.4758     2.886202    5145.8742    883.70575   -7.3443436   -1630.1624    2.8812395 
   12800    847.07468   -1677.0489   -1629.8574    2944.9155    5140.9006    2.8803171    5145.5226    883.40639    77.969354   -1630.1968     2.881174 
   12900    872.92292   -1675.9219   -1627.2904    4432.0181    5134.3794    2.8790987    5145.9795    883.99475    -31.43996   -1630.1364    2.8812593 
   13000    932.29206   -1678.0031    -1626.064   -6970.6046    5173.3263    2.8863602    5146.0096    885.00666    12.204622   -1630.0178     2.881265 
   13100    914.15482   -1676.5094   -1625.5808     3289.548    5141.6915    2.8804648    5146.2028    885.94543    32.465227   -1629.8812    2.8813012 
   13200    926.29883   -1677.1525   -1625.5473    1170.2748      5151.46    2.8822878     5146.549    886.96307   -11.115927   -1629.7453    2.8813659 
   13300    902.45256   -1676.1421   -1625.8654   -2162.8892    5162.1237    2.8842752    5146.6763    888.11053    15.602952   -1629.6218    2.8813898 
   13400    903.08346   -1676.8824   -1626.5706    5354.7771    5139.0875    2.8799784    5146.8549     888.9489    9.7283715    -1629.521    2.8814233 
   13500    891.01322   -1677.3542   -1627.7149   -2202.6665    5150.2769    2.8820671    5147.0191    889.50248   -23.077678   -1629.4524    2.8814541 
   13600    888.95725    -1678.671   -1629.1462   -4355.7493    5156.9235    2.8833064    5146.7918     889.6907    31.800113   -1629.4236    2.8814117 
   13700    854.91407   -1678.1727   -1630.5445    7655.0098    5123.0535    2.8769801    5146.7517    889.54203    14.174848   -1629.4358    2.8814043 
   13800     878.3834   -1680.6099   -1631.6742   -1372.3029    5146.5868    2.8813786    5146.7625    889.17606   -25.741338   -1629.4813    2.8814064 
   13900    873.55984   -1680.9671   -1632.3001   -3723.1606    5152.9045    2.8825572    5146.4469    888.73203    24.871415   -1629.5466    2.8813476 
   14000    929.00074   -1684.0952   -1632.3395     445.2556    5130.8402     2.878437    5146.4007    888.07094    7.7632701   -1629.6174    2.8813391 
   14100     861.1637   -1679.5571   -1631.5807   -2131.5191    5151.6622    2.8823255    5146.3487    887.51004   -1.0344838   -1629.6769    2.8813295 
   14200    856.00924   -1676.6119   -1628.9226    2678.2948     5142.556    2.8806262    5146.2562    887.51802    14.365674   -1629.6943    2.8813123 
   14300    889.66667   -1675.3851   -1625.8208    1195.9148    5149.9447    2.8820052    5146.4787    887.93906   -16.795915   -1629.6369    2.8813539 
   14400    969.23914   -1678.4765   -1624.4791   -5153.7683     5170.503     2.885835    5146.5598    888.91104    2.8011725   -1629.5324    2.8813691 
   14500    936.10817   -1676.2894   -1624.1378    3389.2179    5139.4872    2.8800531    5146.7257    889.82496     5.886772   -1629.4152    2.8814001 
   14600     949.9624   -1677.3283   -1624.4049   -2605.2609    5157.2965    2.8833759    5146.9653    890.69786   -24.602079   -1629.3023    2.8814449 
   14700    877.19035   -1674.1644   -1625.2952   -1635.0659    5167.9521    2.8853603    5146.9084    891.56096     26.23137   -1629.2066    2.8814343 
   14800    934.55432   -1678.6921    -1626.627    6546.9947    5121.3307    2.8766576    5147.1198    892.08548   -3.4869419   -1629.1388    2.8814737 
   14900    904.57038   -1678.6467   -1628.2521   -3715.5824    5162.0777    2.8842667    5147.1701    892.60285   -27.593734   -1629.1043    2.8814831 
   15000    885.82314   -1678.9081   -1629.5579   -805.26832    5145.9418    2.8812583    5146.9614    892.39357    30.963285   -1629.1009    2.8814442 
   15100     851.7833   -1677.8464   -1630.3926    6777.0367    5123.6238    2.8770869    5147.0564     892.2298   -10.298191    -1629.119     2.881462 
   15200    868.22138   -1679.1659   -1630.7963   -6170.9173    5162.5203    2.8843491    5146.9866    892.10811   -16.150488    -1629.148    2.8814489 
   15300    902.66751   -1681.1029   -1630.8143   -16.439732    5140.5551    2.8802526     5146.751    891.74685    27.424572   -1629.1799     2.881405 
   15400    889.82577   -1680.0322    -1630.459      3953.93    5124.6998    2.8772883    5146.8319     891.5103   -17.385078   -1629.2073    2.8814201 
   15500    920.94377   -1680.8623   -1629.5554   -6633.6883    5168.6033    2.8854815    5146.7755    891.49131   -14.115341   -1629.2227    2.8814096 
   15600    909.08094   -1678.4033   -1627.7574    2942.2793    5137.4867    2.8796794    5146.6138    891.56866    25.600427   -1629.2146    2.8813794 
   15700    911.40464   -1675.6834    -1624.908    1172.0793    5149.1794    2.8818624    5146.8363     891.8517   -21.816387   -1629.1643     2.881421 
   15800    943.18209   -1675.3546   -1622.8088   -4335.0554     5170.602    2.8858534    5146.8581    892.58907    11.147409   -1629.0698    2.8814251 
   15900    976.36011   -1676.6617   -1622.2676    5842.6349    5137.7691    2.8797321    5147.0186    893.43212    7.2242502   -1628.9574    2.8814551 
   16000    913.31612   -1673.6117   -1622.7299    340.07904    5156.9104     2.883304    5147.2598    894.34003   -24.879782    -1628.849    2.8815001 
   16100    933.23739   -1675.7496   -1623.7579   -4631.8342    5168.8692     2.885531    5147.2507    895.18055    15.043089   -1628.7562    2.8814984 
   16200    962.38368   -1678.6538   -1625.0383    7464.3146    5123.3282    2.8770315    5147.3549    895.67943    7.0249438    -1628.686    2.8815178 
   16300     904.4994   -1676.9173   -1626.5267   -3060.1389    5162.1428    2.8842788    5147.5793    896.00885   -37.902548   -1628.6402    2.8815597 
   16400    907.58517   -1678.2841   -1627.7215   -4255.0354    5163.9015    2.8846063    5147.3675    896.15675    29.788805   -1628.6163    2.8815201 
   16500    921.30054   -1679.8288   -1628.5022    10837.823    5107.2919    2.8740267     5147.437    896.19032   -2.0731096   -1628.6092     2.881533 
   16600    920.69376   -1680.5143   -1629.2215   -6982.1753    5173.9166    2.8864699     5147.576     896.0273   -38.831481   -1628.6139    2.8815589 
   16700    910.39641   -1680.3543   -1629.6351   -3370.4173    5153.3727    2.8826445    5147.2535    896.06887    42.872788   -1628.6256    2.8814986 
   16800    908.05521   -1680.2133   -1629.6245    9013.5119    5109.9462    2.8745244     5147.469    895.88803    -22.76014   -1628.6404    2.8815387 
   16900    910.59683   -1680.2735   -1629.5431   -12949.068    5189.1313    2.8892965    5147.4026     895.6463   -10.924084   -1628.6551    2.8815262 
   17000    887.08445   -1678.6352   -1629.2147    7058.5642    5122.9804    2.8769664    5147.1779    895.66777    40.412142   -1628.6659    2.8814841 
   17100    942.98818   -1680.4298   -1627.8949    3423.8183    5132.1484    2.8786816    5147.4573    895.61933    -40.10949   -1628.6653    2.8815362 
   17200    903.69392   -1675.6233   -1625.2775   -13131.067    5195.6503     2.890506    5147.2982    895.79254    14.799117    -1628.637    2.8815064 
   17300    957.50568   -1676.4692   -1623.1254    8910.2368    5122.7339    2.8769203    5147.3473    896.36684    26.149656    -1628.575    2.8815155 
   17400    917.26604   -1673.3801   -1622.2781    253.47322    5158.5483    2.8836092    5147.7277     896.9143   -37.110983   -1628.4943    2.8815863 
   17500    950.57246   -1675.2362   -1622.2788   -7279.8715    5185.4947    2.8886214    5147.6063    897.66435    29.170592   -1628.4099    2.8815636 
   17600    931.01575   -1674.9339    -1623.066    8707.0733    5120.5072    2.8765034    5147.9036    898.21267   -9.7488062   -1628.3338     2.881619 
   17700    911.06577   -1675.3987   -1624.6423   -10146.346    5189.9786    2.8894538    5148.0045    898.66647   -9.7387742   -1628.2755    2.8816377 
   17800    911.87406   -1677.2747   -1626.4731    5737.3112    5132.7969    2.8788028    5147.8943     898.9404    32.716206   -1628.2408    2.8816172 
   17900    927.30264   -1679.5083   -1627.8473    1560.9469     5137.635    2.8797071    5148.1206    899.07491   -26.102386   -1628.2275    2.8816594 
   18000    917.11815   -1679.6587    -1628.565   -10475.355    5180.7648    2.8877429    5148.0144    899.12144    4.3809212   -1628.2278    2.8816395 
   18100    970.09665    -1683.024   -1628.9788     5758.566    5121.9126    2.8767665    5147.9596    899.07344    17.003404   -1628.2351    2.8816293 
   18200    847.10338   -1676.4594   -1629.2663     81.53192    5146.3903     2.881342    5148.0729    898.92325    -24.12505   -1628.2462    2.8816504 
   18300    892.77785   -1678.9926   -1629.2549   -3378.3807     5161.232    2.8841091    5147.8749    898.92779    17.041645   -1628.2581    2.8816135 
   18400    912.56098   -1679.9387   -1629.0989    6629.1857    5122.1029    2.8768022    5147.9076    898.75189     3.765022   -1628.2693    2.8816196 
   18500    875.83602   -1677.6324   -1628.8386    -2500.917    5157.1276    2.8833444    5147.9378    898.68944   -14.960883   -1628.2778    2.8816253 
   18600    853.67021   -1675.8206   -1628.2617    -1908.115    5157.4282    2.8834004    5147.8229    898.63255    16.035256   -1628.2812    2.8816039 
   18700    949.07327   -1679.8216   -1626.9477    4724.5288    5127.2263     2.877761    5147.8585    898.70792    1.8860168   -1628.2743    2.8816105 
   18800    957.10544   -1678.1801   -1624.8586   -4544.3964    5163.9322     2.884612    5147.9278    898.79271   -10.958219   -1628.2481    2.8816235 
   18900    955.87998   -1675.9515   -1622.6983   -4344.3074    5166.5368    2.8850969    5147.9169    899.30372    14.676986   -1628.1969    2.8816215 
   19000    918.43604   -1672.7061    -1621.539    5378.0669    5143.9238    2.8808816     5148.086    899.83959     1.008136   -1628.1282    2.8816531 
   19100    922.39331   -1672.9418   -1621.5542   -174.63662    5167.0886    2.8851996    5148.2321    900.39825   -5.2591764   -1628.0551    2.8816804 
   19200    903.25461   -1672.8895   -1622.5682    2054.0763    5155.6233    2.8830641    5148.2892    900.99943    9.8942366    -1627.989     2.881691 
   19300     904.3688   -1674.5692   -1624.1858    2643.1112    5150.7588     2.882157    5148.4365    901.37072   -5.7152168   -1627.9393    2.8817186 
   19400    921.98832   -1677.1364   -1625.7714   -1642.1852    5159.6614    2.8838166    5148.4843    901.63886   -1.9573715   -1627.9084    2.8817275 
   19500    927.21245   -1678.4315   -1626.7754   -80.331103    5146.2235    2.8813108    5148.4942    901.80066    2.4649231   -1627.8918    2.8817294 
   19600    937.20721   -1679.6101   -1627.3973   -887.33165    5148.0447    2.8816507    5148.5387    901.91378   -6.2124865   -1627.8836    2.8817378 
   19700    932.09734   -1679.8355   -1627.9073   -3152.6844    5154.5232     2.882859    5148.5301    901.95723   -2.5154852   -1627.8813    2.8817362 
   19800    877.31519   -1677.2492    -1628.373    896.70805     5141.174    2.8803681    5148.5002    901.93992  -0.15089966    -1627.884    2.8817307 
   19900    934.93278      -1680.9   -1628.8138   -3577.8001    5151.9167     2.882373    5148.5132    901.83835   -5.8673913   -1627.8912    2.8817332 
Finished 900 K - next row contains averaged properties
   20000    893.69135   -1678.9821   -1629.1936   -292.43393    5151.9242    2.8823744    5148.4736    901.78519     4.197707   -1627.9023    2.8817258 
Loop time of 5.9369 on 2 procs for 10000 steps with 432 atoms

Performance: 291.061 ns/day, 0.082 hours/ns, 1684.381 timesteps/s
99.8% CPU use with 2 MPI tasks x 1 OpenMP threads

MPI task timing breakdown:
Section |  min time  |  avg time  |  max time  |%varavg| %total
---------------------------------------------------------------
Pair    | 5.3212     | 5.359      | 5.3967     |   1.6 | 90.27
Neigh   | 0.0004158  | 0.00042284 | 0.00042987 |   0.0 |  0.01
Comm    | 0.20788    | 0.24496    | 0.28204    |   7.5 |  4.13
Output  | 0.030705   | 0.030936   | 0.031166   |   0.1 |  0.52
Modify  | 0.25867    | 0.25896    | 0.25925    |   0.1 |  4.36
Other   |            | 0.04264    |            |       |  0.72

Nlocal:    216 ave 219 max 213 min
Histogram: 1 0 0 0 0 0 0 0 0 1
Nghost:    1930.5 ave 1935 max 1926 min
Histogram: 1 0 0 0 0 0 0 0 0 1
Neighs:    14986 ave 15166 max 14806 min
Histogram: 1 0 0 0 0 0 0 0 0 1

Total # of neighbors = 29972
Ave neighs/atom = 69.3796
Neighbor list builds = 1
Dangerous builds = 0
System init for write_data ...
Setting up Verlet run ...
  Unit style    : metal
  Current step  : 0
  Time step     : 0.002
Per MPI rank memory allocation (min/avg/max) = 4.281 | 4.281 | 4.281 Mbytes
Step Temp PotEng TotEng Press Volume 
       0         1200   -1678.9821   -1612.1288    3245.5088    5151.9242 
     100    1035.9048   -1668.6358   -1610.9244    -6368.965    5207.6126 
     200    1101.3621   -1669.0226   -1607.6645    5034.6187    5163.0462 
     300    1125.5479   -1667.5989   -1604.8934   -5166.1792    5206.3536 
     400    1195.7039   -1669.1925   -1602.5785    1934.6871    5178.5905 
     500    1119.7956   -1662.3569   -1599.9718   -2977.5728    5206.3379 
     600    1161.6342   -1661.8151   -1597.0991   -611.14063    5209.2427 
     700    1190.9128   -1660.7352   -1594.3881    1439.7179     5205.947 
     800    1161.3989   -1656.7282   -1592.0254   -2069.2006    5231.9269 
     900    1194.3857    -1656.405   -1589.8645     8900.948    5183.1245 
    1000    1183.4012   -1653.9911   -1588.0625   -14279.221    5281.1191 
    1100    1251.9807   -1656.2988   -1586.5495    20799.191     5144.666 
    1200    1199.0452   -1652.7461    -1585.946   -20870.813    5312.8738 
    1300    1246.5296   -1655.4067   -1585.9611    19541.675    5147.1225 
    1400     1214.284    -1654.552   -1586.9029   -13007.363    5282.3257 
    1500    1255.8989    -1658.286   -1588.3185    9462.0505    5185.0697 
    1600    1143.9782    -1654.154   -1590.4217   -4013.7845    5245.0162 
    1700    1165.9828   -1657.4411   -1592.4829    3134.7452    5201.7757 
    1800    1181.3824   -1659.8747   -1594.0585   -1931.4914    5215.6906 
    1900     1193.385   -1661.4422   -1594.9574   -655.67487    5212.8808 
    2000    1129.9422   -1658.2012   -1595.2508    4177.0163    5196.6475 
    2100    1137.3742   -1658.3392   -1594.9748   -352.98532    5214.0671 
    2200     1172.348   -1659.3658    -1594.053    2728.5645    5196.7655 
    2300     1238.311   -1660.9949   -1592.0072   -5583.2871    5229.8649 
    2400    1255.9785   -1657.9628   -1587.9908    3996.0619    5205.4242 
    2500    1261.8539   -1655.1552   -1584.8559   -5914.6801    5243.6147 
    2600    1202.0475   -1650.9021   -1583.9347    5315.1739    5213.7518 
    2700    1250.5567   -1653.9745   -1584.3045   -6531.0724    5250.6452 
[...]
    7300    1274.1605   -1656.1071   -1585.1222    -10619.67      5259.77 
    7400    1268.0015    -1654.031   -1583.3892    8647.4192    5196.7302 
    7500    1200.2961   -1649.3923   -1582.5224   -5062.6909    5261.2282 
    7600    1159.0963   -1647.3181   -1582.7435     11945.07    5198.4438 
    7700    1229.0804   -1653.0095    -1584.536   -10931.345    5266.4848 
    7800    1234.3343   -1656.3078   -1587.5416    8375.9878    5184.1342 
    7900    1174.0234   -1655.8395   -1590.4334   -8990.5104    5255.6482 
    8000    1229.1746   -1660.4366   -1591.9579    8563.0897    5183.7873 
    8100    1181.1229   -1658.5243   -1592.7226    -6942.333     5236.439 
    8200    1185.1044   -1659.0475    -1593.024    3937.7648    5198.8075 
    8300    1193.3102   -1659.5242   -1593.0436    794.48553    5208.9279 
    8400    1158.0046   -1657.2564   -1592.7427   -3346.2076    5230.1806 
    8500    1181.6036   -1657.9116   -1592.0831    8859.8825    5182.1612 
    8600     1184.746   -1657.0136     -1591.01    -7506.105    5241.3371 
    8700    1167.3662   -1654.2568   -1589.2215     9866.179    5187.5203 
    8800    1259.4368   -1656.8326    -1586.668   -8264.2206     5250.708 
    8900    1256.2678   -1654.1701    -1584.182    5420.0621    5209.7849 
    9000    1249.8944   -1652.4689   -1582.8359   -1344.0399    5251.2207 
    9100     1234.518   -1651.4416   -1582.6652    3754.1673    5210.6362 
    9200    1262.1351   -1654.1549   -1583.8399   -2773.8642    5243.1379 
    9300    1291.2332   -1658.0578   -1586.1218     3065.632     5205.677 
    9400     1197.333   -1655.4343   -1588.7295   -3927.6439    5235.1866 
    9500      1200.69   -1657.0686   -1590.1768    2825.0323    5211.6119 
    9600    1203.2604   -1657.8062   -1590.7712   -2050.8182    5223.3083 
    9700    1253.6402   -1661.0029   -1591.1612   -1147.7677    5211.6125 
    9800    1268.0608   -1662.0113   -1591.3662   -1808.3933    5217.1445 
    9900    1286.2766    -1663.124   -1591.4641   -1414.7659    5211.0439 
   10000    1233.8409   -1660.2606    -1591.522   -2754.6902    5225.2265 
Loop time of 5.37494 on 2 procs for 10000 steps with 432 atoms

Performance: 321.492 ns/day, 0.075 hours/ns, 1860.485 timesteps/s
99.6% CPU use with 2 MPI tasks x 1 OpenMP threads

MPI task timing breakdown:
Section |  min time  |  avg time  |  max time  |%varavg| %total
---------------------------------------------------------------
Pair    | 4.8848     | 4.8859     | 4.887      |   0.1 | 90.90
Neigh   | 0.057088   | 0.057472   | 0.057856   |   0.2 |  1.07
Comm    | 0.23067    | 0.23103    | 0.2314     |   0.1 |  4.30
Output  | 0.030235   | 0.030433   | 0.030631   |   0.1 |  0.57
Modify  | 0.13622    | 0.13644    | 0.13666    |   0.1 |  2.54
Other   |            | 0.03365    |            |       |  0.63

Nlocal:    216 ave 218 max 214 min
Histogram: 1 0 0 0 0 0 0 0 0 1
Nghost:    1821 ave 1829 max 1813 min
Histogram: 1 0 0 0 0 0 0 0 0 1
Neighs:    14779.5 ave 14953 max 14606 min
Histogram: 1 0 0 0 0 0 0 0 0 1

Total # of neighbors = 29559
Ave neighs/atom = 68.4236
Neighbor list builds = 131
Dangerous builds = 0
Setting up Verlet run ...
  Unit style    : metal
  Current step  : 10000
  Time step     : 0.002
Per MPI rank memory allocation (min/avg/max) = 4.281 | 4.281 | 4.281 Mbytes
Step Temp PotEng TotEng Press Volume v_my_lx f_1 f_2 f_3 f_4 f_5 
   10000    1233.8409   -1660.2606    -1591.522   -2754.6902    5225.2265    2.8959803            0            0            0            0            0 
   10100    1186.0389   -1657.4945   -1591.4189    1679.7674    5214.8969    2.8940707    5217.2153    1196.2307    527.08554   -1591.4794    2.8944993 
   10200    1136.7134   -1654.4834   -1591.1558    1532.8804    5213.4955    2.8938115    5217.8543    1195.0731   -151.13372   -1591.3893    2.8946176 
   10300    1192.2466   -1657.1873   -1590.7659   -1625.5573    5221.4349    2.8952797    5216.2545     1197.773    196.54254   -1591.2472    2.8943216 
   10400    1252.6689   -1660.0411   -1590.2535   -154.00924    5212.4426    2.8936166    5217.3238    1201.0857   -82.618767   -1591.0626    2.8945193 
   10500     1197.622   -1656.3923   -1589.6714    154.34602    5228.6495    2.8966125    5216.9526    1202.4219    136.95612   -1590.8443    2.8944507 
   10600    1179.0719   -1654.4888   -1588.8013    1087.0979    5214.1881    2.8939396    5219.3977    1202.0698   -226.76354   -1590.5793    2.8949024 
   10700     1204.497   -1654.7416   -1587.6377   -1700.3613    5227.4119     2.896384    5217.9188    1204.9687    156.49213   -1590.2402    2.8946288 
   10800    1215.4733   -1654.3297   -1586.6143     4605.619      5205.27    2.8922888    5219.6352    1207.4314    -229.1227   -1589.8467    2.8949458 
   10900    1184.3705   -1652.0231   -1586.0405   -5316.9412    5249.7364    2.9005013    5218.9108     1212.155    131.60701   -1589.4475    2.8948116 
   11000    1221.7192   -1654.1856   -1586.1222    10812.048    5188.4127    2.8891632    5220.1599    1214.4027   -78.554704   -1589.1086    2.8950418 
   11100    1228.9209   -1655.7139   -1587.2493   -9846.8206    5260.4446    2.9024721    5220.1708    1216.6568    7.2498999   -1588.8844    2.8950433 
   11200    1269.4607   -1660.1165   -1589.3934    9840.1739    5176.4952    2.8869494    5220.1262    1217.1189    6.9689824   -1588.8358    2.8950344 
   11300    1232.6209   -1660.8086   -1592.1379   -12728.608    5261.6572    2.9026951    5220.2224    1215.9455   -68.110086   -1588.9928    2.8950515 
   11400    1169.6451   -1659.3036   -1594.1413     11397.52     5167.781    2.8853285    5219.0307    1214.1646    95.533349   -1589.3014    2.8948303 
   11500    1206.1844   -1662.4551   -1595.2572   -11949.479    5248.5446    2.9002818    5219.3272    1210.6926    -117.9249   -1589.6706    2.8948847 
   11600    1196.3584   -1662.1288   -1595.4783    8043.8394    5178.3139    2.8872874    5217.7007    1208.3938    154.57066   -1590.0307    2.8945833 
   11700    1155.6871   -1659.6103   -1595.2257   -6631.4371    5233.1212    2.8974381    5218.6761    1205.1958   -212.56078   -1590.3453    2.8947634 
   11800    1185.4869   -1660.4122   -1594.3674    1458.5555    5197.2032    2.8907939    5216.4844    1203.6717    228.65938   -1590.5883    2.8943572 
   11900    1225.7539    -1661.336   -1593.0478   -2081.1115    5210.2112    2.8932037    5217.6855    1202.3332   -189.05391   -1590.7492    2.8945792 
   12000    1249.4013   -1660.8949   -1591.2893   -5071.3452    5231.7029    2.8971763    5216.2233    1202.1348    158.24528   -1590.8172    2.8943084 
   12100    1207.0614   -1656.6442   -1589.3974    5567.9992    5200.7353    2.8914486    5217.3336    1202.0973   -90.201255   -1590.7933    2.8945137 
   12200    1253.9355   -1657.4834   -1587.6253    -6501.932    5245.5884    2.8997372    5216.9152    1202.7847    69.733316   -1590.6883    2.8944364 
   12300    1167.8507   -1651.3769   -1586.3146    5781.3521    5200.0047    2.8913132    5217.4013    1203.8384   -1.2317911   -1590.5245    2.8945264 
   12400    1216.6632   -1653.4291   -1585.6475   -1373.8733    5244.4251    2.8995228    5217.5745    1205.7364    29.172963   -1590.3325    2.8945586 
   12500    1330.4905   -1659.8439   -1585.7208    4206.4437    5195.9349    2.8905587    5217.8773    1207.5055   -16.161838   -1590.1441    2.8946148 
   12600    1213.1701   -1655.6676   -1588.0805   -5910.3634    5249.9051    2.9005324    5218.1428    1208.8522   -19.655124   -1590.0083    2.8946639 
   12700    1187.9356   -1658.9084   -1592.7272    5838.9006    5190.1765    2.8894905    5218.0199    1208.5412    4.2542561   -1590.0252    2.8946413 
   12800    1184.0527   -1661.5371   -1595.5722   -4391.3321    5226.7194    2.8962561    5217.8385     1207.237   -27.271672   -1590.1797    2.8946079 
   12900    1160.3495   -1661.5308   -1596.8865    1536.6254      5197.67    2.8908804    5217.3437    1205.5067    22.755165   -1590.3915    2.8945165 
   13000    1174.8155   -1662.7578   -1597.3075   -1527.2464     5210.172    2.8931964    5217.2459    1203.7209   -49.397382   -1590.6174    2.8944986 
   13100    1133.4372   -1659.9958   -1596.8508    1377.5554    5204.6071     2.892166    5216.5852    1201.9856      32.4864   -1590.8277    2.8943765 
   13200    1120.0138     -1657.89   -1595.4928    4316.2557    5195.0245    2.8903899    5216.4746    1200.5331   -47.112503   -1590.9965    2.8943562 
   13300    1207.5927   -1660.6862   -1593.4098   -5534.4825    5229.5341    2.8967759    5215.9728    1199.7416    34.160905   -1591.1021    2.8942634 
   13400    1201.7923   -1658.0686   -1591.1154     5163.062    5193.3501    2.8900793    5216.1715    1199.3801   -40.661015   -1591.1361    2.8943002 
   13500    1224.8763   -1657.5803    -1589.341   -5821.9893     5239.688    2.8986495     5215.871    1199.8674    18.437565   -1591.1086    2.8942447 
   13600    1158.3531   -1652.6522    -1588.119     6812.453     5201.817    2.8916491    5216.2196     1200.166   -21.144527   -1591.0419    2.8943092 
   13700    1248.3332   -1656.9448   -1587.3987   -4190.9437     5236.854    2.8981268    5216.2657    1200.9588   -8.0625334   -1590.9521    2.8943179 
   13800    1285.3365   -1658.7845   -1587.1769    390.18084    5211.5554    2.8934525    5216.4155    1201.4684    4.1176057   -1590.8549    2.8943457 
   13900    1230.0296   -1656.0888   -1587.5624   -4179.0409    5240.5035    2.8987999    5216.6968    1202.2251   -10.838981   -1590.7643    2.8943978 
   14000    1227.5791   -1657.1432   -1588.7533    3938.4941    5202.4275    2.8917622    5216.6809    1202.8927    26.684751   -1590.6974    2.8943949 
   14100     1201.434    -1658.078   -1591.1447   -4747.5398    5237.1516    2.8981817    5217.0753    1202.9747   -55.750343   -1590.6771    2.8944679 
   14200    1225.2282   -1662.3963   -1594.1375    2610.6655    5194.2714    2.8902502    5216.6504    1202.7656    39.964629    -1590.724    2.8943893 
   14300    1142.5826   -1660.0009   -1596.3463   -1362.1066    5214.7575    2.8940449    5216.8306    1201.8347   -60.362035    -1590.832    2.8944227 
   14400    1109.9056   -1659.0509   -1597.2168     148.8915    5209.6457     2.893099    5216.1147    1201.0588      67.7401   -1590.9682    2.8942901 
   14500    1163.7243   -1661.8671   -1597.0347    849.36272    5193.8135    2.8901653    5216.4051    1199.8058    -65.20909   -1591.1053    2.8943438 
   14600    1171.6278   -1661.6818   -1596.4091   -4915.7443    5229.4478    2.8967599    5215.6411    1198.9227    73.378616   -1591.2265    2.8942022 
   14700    1146.3254   -1659.0446   -1595.1816    10776.338    5172.6842    2.8862407    5215.9282    1198.1751   -53.019656   -1591.3239    2.8942552 
   14800     1169.634   -1659.0274   -1593.8658   -10689.612    5251.9714    2.9009128    5215.4583    1197.8225    30.554955   -1591.3908    2.8941681 
   14900    1231.7207   -1661.1561   -1592.5355    10539.754    5170.1354    2.8857666    5215.5869    1197.6976   -19.267268   -1591.4284    2.8941918 
   15000     1181.241   -1657.3565   -1591.5482   -10142.057    5256.7645    2.9017951     5215.487    1197.5951   -2.0773234   -1591.4415    2.8941732 
   15100     1234.753   -1659.5272   -1590.7377    9788.8816    5177.5225    2.8871403    5215.4081    1197.6406    20.160046   -1591.4363    2.8941585 
   15200    1127.7367   -1653.0703   -1590.2428   -4617.8184    5247.5773    2.9001036    5215.6702    1197.5125   -35.679074   -1591.4187    2.8942069 
   15300    1237.3452   -1658.8052   -1589.8714     1743.161    5198.5371    2.8910412    5215.4621    1197.8584    33.206541   -1591.3921    2.8941684 
   15400    1232.4603   -1658.4533   -1589.7915    -5233.786    5234.4107     2.897676    5215.7962    1197.8954   -33.490434   -1591.3629    2.8942302 
   15500    1167.8357   -1654.9773   -1589.9158    3399.1695    5208.3231    2.8928541    5215.5455    1198.3031    38.904871   -1591.3345    2.8941839 
   15600    1202.1955   -1657.1556   -1590.1799   -1297.5794    5222.7051    2.8955144    5215.8995    1198.3791   -38.560407   -1591.3111    2.8942494 
   15700     1219.749   -1658.4775   -1590.5239    -629.9455    5220.7241    2.8951483    5215.5939    1198.5673    45.982696   -1591.2935    2.8941929 
   15800    1166.7099   -1655.7498   -1590.7511    4978.5966    5199.3755    2.8911966    5215.8725    1198.5867   -33.468796   -1591.2819    2.8942445 
   15900    1166.2981   -1655.8561   -1590.8804   -4746.9034    5237.4083    2.8982291    5215.6699    1198.5441    25.347818   -1591.2739     2.894207 
   16000    1218.3065   -1658.7283   -1590.8551    5312.7124    5190.0679    2.8894704     5215.839    1198.5274   -22.581752   -1591.2673    2.8942383 
   16100     1135.904   -1654.1722   -1590.8897   -3415.9853    5243.2043    2.8992978    5215.7076    1198.4855    13.836766   -1591.2612     2.894214 
   16200    1197.9921   -1657.5562   -1590.8148    6495.6653    5193.0206    2.8900182    5215.8371    1198.3997   -4.3096376   -1591.2551     2.894238 
   16300    1226.9673    -1659.236   -1590.8803   -4261.2877    5227.8972    2.8964736    5215.8021    1198.5303   -10.659053   -1591.2487    2.8942316 
   16400    1279.6486   -1662.2605   -1590.9699   -1155.6534    5216.1124    2.8942956    5215.7136    1198.6075    21.509099   -1591.2437    2.8942153 
   16500      1218.22   -1658.8743   -1591.0059   -1238.1554     5218.302    2.8947005    5215.8831    1198.5934   -14.969159   -1591.2399    2.8942467 
   16600    1253.9079   -1660.9061   -1591.0495    309.67353     5213.127    2.8937433    5215.7368    1198.7086    17.909595   -1591.2364    2.8942198 
   16700    1211.0139   -1658.5182   -1591.0513    8.4610025    5216.7651    2.8944163    5215.9214    1198.6762   -26.036652   -1591.2337    2.8942539 
   16800    1179.0974   -1656.7849   -1591.0961    2061.7729    5212.3461    2.8935988    5215.7124    1198.7189    19.162905   -1591.2309    2.8942153 
   16900    1161.8322   -1655.7802   -1591.0532    3377.3507    5205.8876    2.8924031    5215.8695    1198.6862   -31.464257   -1591.2284    2.8942445 
   17000    1146.0915   -1654.7943   -1590.9443    -1482.036    5227.2399    2.8963522      5215.67    1198.7432    18.520127   -1591.2246    2.8942076 
   17100    1217.9897   -1658.4725    -1590.617     3621.431    5201.5346    2.8915967    5215.8323    1198.6383   -17.958413   -1591.2187    2.8942377 
   17200    1281.4998   -1661.2718    -1589.878   -5695.0753    5233.8487    2.8975723    5215.7503     1198.676    4.9478441   -1591.2056    2.8942225 
   17300    1233.9436    -1657.585   -1588.8406    2774.2002    5208.7223     2.892928    5215.8776    1198.6913   -8.7814872   -1591.1806    2.8942461 
   17400    1185.3693   -1653.7623    -1587.724    -3060.724    5238.5949    2.8984479    5215.9593    1198.9642   -1.4302436   -1591.1412    2.8942613 
   17500    1293.6707   -1658.7955   -1586.7237    3297.6972    5207.3473    2.8926735    5216.0541    1199.2628   -2.6657794   -1591.0888    2.8942789 
   17600     1178.481   -1651.8748   -1586.2203   -3853.8121    5239.7747    2.8986655    5216.2347    1199.7568    -19.58996   -1591.0274    2.8943123 
   17700     1265.108   -1656.7717   -1586.2912    3117.8505    5206.1149    2.8924452    5216.1944    1200.2653     3.837328   -1590.9648    2.8943049 
   17800    1292.3667   -1659.2087   -1587.2095   -6270.5439    5239.6362      2.89864    5216.3585    1200.5985    -14.64845   -1590.9103    2.8943353 
   17900    1199.0069   -1655.6742   -1588.8762    2832.7795    5207.9849    2.8927915    5216.3569    1200.9276    2.6223551   -1590.8733     2.894335 
   18000    1158.3106   -1655.5733   -1591.0425    65.009764    5221.2974    2.8952543    5216.4442    1200.9033   -18.665305   -1590.8618    2.8943512 
   18100    1202.0345   -1660.0034   -1593.0367   -1090.7292     5211.849    2.8935068    5216.3381    1200.7406    3.9107834   -1590.8768    2.8943317 
   18200    1134.0383   -1657.5399   -1594.3614    1145.4334    5202.9762    2.8918639     5216.314    1200.2633   -14.516466    -1590.912    2.8943273 
   18300    1123.8409   -1657.4896   -1594.8791   -1053.6358    5214.2404    2.8939493    5216.1668    1199.7144     2.187837   -1590.9574    2.8943001 
   18400    1149.7062   -1658.6811   -1594.6297    3150.0849    5201.1738    2.8915299    5216.1065    1199.4092   -9.7318104   -1591.0032     2.894289 
   18500    1185.5185   -1659.7564   -1593.7098   -2143.0277    5220.7368    2.8951506    5216.0361    1199.0226   -8.9403386   -1591.0413     2.894276 
   18600    1151.1668   -1655.9935   -1591.8607    2735.5159    5209.2429    2.8930244    5216.0063    1198.7574   -5.6710387   -1591.0626    2.8942706 
   18700    1264.1304   -1659.1598   -1588.7337   -1982.4044    5217.4471    2.8945424    5216.0206    1198.7264   -14.786079   -1591.0548    2.8942733 
   18800    1226.3993   -1653.8896   -1585.5655   -1150.9916     5233.105    2.8974351    5216.0583    1199.0414   0.88227438    -1591.009    2.8942803 
   18900    1276.2501   -1655.2694    -1584.168   -974.31292    5227.7345    2.8964436    5216.2876    1199.5879    -17.25212   -1590.9379    2.8943227 
   19000    1246.3229   -1653.7068   -1584.2727      82.3604    5235.4252    2.8978632    5216.3804    1200.1429   0.13553415   -1590.8625    2.8943399 
   19100    1258.6822   -1655.1155   -1584.9929    3227.2578    5212.7639    2.8936761     5216.547     1200.625   -13.691583   -1590.7936    2.8943708 
   19200    1197.1648   -1652.9565   -1586.2611   -3538.5429    5242.9233     2.899246    5216.6473    1201.0765   -7.2528439    -1590.737    2.8943894 
   19300    1257.4325    -1658.054   -1588.0011    7304.1046    5193.2899    2.8900682    5216.6927    1201.4465   -7.0051205   -1590.6981    2.8943978 
   19400    1159.2229   -1654.5811   -1589.9995   -6229.7331    5248.9919    2.9003642    5216.8037    1201.5685   -22.433202   -1590.6807    2.8944183 
   19500    1184.8028   -1657.5604   -1591.5537    6041.7754    5185.5626     2.888634    5216.6955    1201.5578    7.3824658   -1590.6822    2.8943982 
   19600    1146.3244   -1656.6496   -1592.7866   -6002.9933    5232.9909     2.897414    5216.7583    1201.3298   -30.968004   -1590.6983    2.8944099 
   19700    1178.7605   -1659.2166   -1593.5465    3201.4156    5196.2397    2.8906152    5216.5109    1201.3014    16.769495   -1590.7237     2.894364 
   19800    1172.8441   -1659.2855    -1593.945   -449.14585    5215.6966    2.8942186    5216.6784    1200.8995    -42.48601   -1590.7546     2.894395 
   19900    1168.8614   -1659.0417   -1593.9232   -1605.1945    5218.1967     2.894681    5216.3397    1200.7673    31.113059   -1590.7859    2.8943323 
Finished 1200 K - next row contains averaged properties
   20000    1110.4828   -1655.1055   -1593.2393    7767.0324    5182.2308    2.8880153    5216.6231    1200.3575   -56.280161   -1590.8136    2.8943846 
Loop time of 6.08419 on 2 procs for 10000 steps with 432 atoms

Performance: 284.015 ns/day, 0.085 hours/ns, 1643.605 timesteps/s
99.8% CPU use with 2 MPI tasks x 1 OpenMP threads

MPI task timing breakdown:
Section |  min time  |  avg time  |  max time  |%varavg| %total
---------------------------------------------------------------
Pair    | 5.4225     | 5.4499     | 5.4773     |   1.2 | 89.58
Neigh   | 0.043824   | 0.043833   | 0.043841   |   0.0 |  0.72
Comm    | 0.23459    | 0.2617     | 0.28881    |   5.3 |  4.30
Output  | 0.030532   | 0.030785   | 0.031038   |   0.1 |  0.51
Modify  | 0.25779    | 0.25782    | 0.25785    |   0.0 |  4.24
Other   |            | 0.04014    |            |       |  0.66

Nlocal:    216 ave 217 max 215 min
Histogram: 1 0 0 0 0 0 0 0 0 1
Nghost:    1874 ave 1886 max 1862 min
Histogram: 1 0 0 0 0 0 0 0 0 1
Neighs:    14930 ave 14948 max 14912 min
Histogram: 1 0 0 0 0 0 0 0 0 1

Total # of neighbors = 29860
Ave neighs/atom = 69.1204
Neighbor list builds = 100
Dangerous builds = 0
System init for write_data ...
Total wall time: 0:00:44
