LAMMPS (7 Aug 2019)
OMP_NUM_THREADS environment is not set. Defaulting to 1 thread. (../comm.cpp:93)
  using 1 OpenMP thread(s) per MPI task
Reading data file ...
  orthogonal box = (0 0 0) to (17.0975 17.1318 17.1318)
  1 by 1 by 2 MPI processor grid
  reading atoms ...
  432 atoms
  read_data CPU = 0.00134993 secs
432 atoms in group iron
432 atoms in group Fe
Neighbor list info ...
  update every 1 steps, delay 10 steps, check yes
  max neighbors/atom: 2000, page size: 100000
  master list distance cutoff = 7.3
  ghost atom cutoff = 7.3
  binsize = 3.65, bins = 5 5 5
  1 neighbor lists, perpetual/occasional/extra = 1 0 0
  (1) pair eam/fs, perpetual
      attributes: half, newton on
      pair build: half/bin/atomonly/newton
      stencil: half/bin/3d/newton
      bin: standard
Setting up Verlet run ...
  Unit style    : metal
  Current step  : 0
  Time step     : 0.002
Per MPI rank memory allocation (min/avg/max) = 4.309 | 4.309 | 4.309 Mbytes
Step Temp PotEng TotEng Press Volume 
       0          300    -1733.593   -1716.8796    7144.2594    5018.1025 
     100    138.63187   -1724.0441   -1716.3208    -190.0916    5037.3287 
     200    137.44929   -1723.1378   -1715.4804   -3193.2596    5048.1076 
     300    164.81665   -1723.6016   -1714.4194   -2651.8286    5047.4014 
     400    195.40862    -1724.111   -1713.2246   -488.38252    5039.9164 
     500    189.01245   -1722.4207   -1711.8906    5436.9725    5027.7638 
     600    200.24346   -1721.6513   -1710.4955    1743.2696    5036.4861 
     700    212.52965   -1720.8227   -1708.9824    -5500.154    5057.9959 
     800     219.3909   -1719.6697   -1707.4472   -4350.2914    5059.9096 
     900    235.23087   -1718.9851   -1705.8801      2328.43    5043.0213 
    1000    237.35871   -1717.4879   -1704.2644    5152.8174     5033.365 
    1100    273.45008   -1718.0154   -1702.7812    3773.5632     5038.331 
    1200    301.04992   -1718.0659    -1701.294   -3337.5827    5060.1383 
    1300    267.96199   -1714.8209   -1699.8925   -8011.4489    5080.1156 
    1400    306.70685   -1715.8425   -1698.7555   -3911.2544    5067.3698 
    1500    321.46286   -1715.6769   -1697.7678    8570.6432    5033.8179 
    1600    274.43626   -1712.3747   -1697.0855     6397.422    5035.1554 
    1700    357.86334   -1716.7354   -1696.7984    1109.2442     5051.073 
    1800    328.84385   -1715.1979   -1696.8776    -4463.962    5071.5211 
    1900    328.16351   -1715.6147   -1697.3323    -7129.438    5078.2849 
    2000    322.82257   -1716.0976   -1698.1128    -1265.007    5060.8118 
    2100    286.76481   -1714.9156   -1698.9396    3940.7044    5044.4408 
    2200    329.16996   -1718.0767   -1699.7382    1847.0856    5048.8016 
    2300    303.04009   -1717.2699   -1700.3872   -1438.0779      5057.76 
    2400    270.67691   -1715.9339   -1700.8542   -1321.8647    5058.4777 
    2500    259.74807   -1715.5609     -1701.09    -674.3948    5057.0812 
    2600    265.08327   -1715.8213   -1701.0532    2147.8006    5048.6544 
    2700     324.2928   -1718.8255   -1700.7587    3521.6712    5042.9842 
    2800    298.78111   -1716.9117   -1700.2663   -1092.9577    5055.4359 
    2900    286.41644   -1715.5903   -1699.6337   -2454.8674    5061.0708 
    3000    309.68936   -1716.2358   -1698.9826   -253.08857    5058.1389 
    3100    303.31709   -1715.3076   -1698.4095    -1202.777     5059.302 
    3200    312.75662   -1715.4056   -1697.9815    1895.6823    5050.6389 
    3300    314.42597   -1715.2828   -1697.7658    1858.3455    5048.9997 
    3400    319.17731   -1715.5629   -1697.7811   -897.30332    5058.9574 
    3500    312.15159   -1715.4356   -1698.0453   -1688.9684    5060.9386 
    3600    309.65953   -1715.7513   -1698.4998    160.73461    5056.0526 
    3700     290.6875   -1715.2574   -1699.0628    1920.1019    5048.8011 
    3800    280.49572    -1715.255   -1699.6283    986.29024    5046.6101 
    3900    295.86456   -1716.5931   -1700.1102    700.93118     5052.677 
    4000    281.24723   -1716.1211   -1700.4525   -1529.5866    5059.6335 
    4100    302.16329   -1717.4573   -1700.6235   -1948.9418      5058.46 
    4200    290.34982    -1716.779   -1700.6033   -160.38187    5053.7413 
    4300    282.16173    -1716.107   -1700.3874    52.278625     5051.543 
    4400    291.63824   -1716.2384   -1699.9909    3964.3832    5043.0181 
    4500    294.74339   -1715.9346   -1699.5142    3685.9982    5046.9682 
    4600     296.7092   -1715.5543   -1699.0243   -4193.6673    5068.0094 
    4700    296.68621   -1715.0387   -1698.5099   -6161.1733    5075.5292 
    4800    318.94682   -1715.9703   -1698.2014   -3165.4024    5066.0134 
    4900    334.87302   -1716.6705   -1698.0143    2876.6604     5047.489 
    5000    293.97104   -1714.3916   -1698.0141    5954.6301    5036.9173 
    5100    305.80021   -1715.3243   -1698.2878    4527.7951    5042.0633 
    5200    303.21397   -1715.5752   -1698.6828   -4180.8223    5069.2035 
    5300    313.75289   -1716.6159   -1699.1364   -8152.9283    5079.7738 
    5400    320.62026   -1717.5014   -1699.6393   -1926.8054    5060.7322 
    5500    279.00218    -1715.552   -1700.0084    5237.0064    5037.2491 
    5600    298.77143    -1716.902   -1700.2571     6475.469    5033.2811 
    5700    280.21265   -1716.0123   -1700.4014    1547.8312    5049.4401 
    5800    294.79813    -1716.784   -1700.3604   -5385.4404    5069.5215 
    5900    298.91911   -1716.7816   -1700.1285   -4700.8674    5068.2381 
    6000    282.80849   -1715.4905    -1699.735    61.045544    5054.3059 
    6100    294.35213   -1715.5975   -1699.1988    2526.3705     5047.884 
    6200    320.21914   -1716.5528    -1698.713    1144.0925    5050.2049 
    6300    312.17907    -1715.785   -1698.3931    1265.0671    5053.9438 
    6400    291.97149   -1714.5061     -1698.24   -863.97488    5059.3518 
    6500    302.53206    -1715.114   -1698.2596   -2890.5744    5061.7006 
    6600     326.9944    -1716.671   -1698.4538    407.67098    5054.6346 
    6700    298.56297   -1715.5192   -1698.8859   -51.323588    5055.8091 
    6800    294.74278   -1716.0986   -1699.6782    619.73702     5051.051 
    6900    277.18124    -1715.948   -1700.5059    2096.7309    5047.6467 
    7000    287.56512    -1716.867   -1700.8464   -783.56157    5056.3685 
    7100    274.56171    -1716.125   -1700.8288   -2673.8825    5063.2134 
    7200     294.4784   -1717.0605   -1700.6548   -1419.2729    5057.0425 
    7300     289.2204   -1716.4481   -1700.3354    2504.1164    5046.1457 
    7400    299.72504   -1716.6241   -1699.9261    1859.3567    5046.1591 
    7500    291.76757   -1715.7542   -1699.4995     621.1901    5052.0099 
    7600    295.37057   -1715.5793   -1699.1239   -2026.1656    5062.7629 
    7700    293.97569   -1715.2219   -1698.8442    -3729.657    5066.3045 
    7800    315.56951   -1716.2627    -1698.682   -538.17872    5056.1298 
    7900    306.24148   -1715.6782   -1698.6171     2778.619    5046.2214 
    8000    313.07811   -1716.0985   -1698.6566    2019.9704    5048.6078 
    8100    315.41909   -1716.4162   -1698.8439    489.17445    5055.0624 
    8200    295.34822   -1715.7614   -1699.3073    -3887.312    5065.5746 
    8300    299.40885   -1716.9074    -1700.227   -3547.6451    5062.7993 
    8400    284.46075    -1716.845   -1700.9974    478.98204    5051.5564 
    8500    286.17027   -1717.1491   -1701.2062    5397.2566     5036.208 
    8600    278.80226   -1716.6802   -1701.1478    4424.5503    5038.1087 
    8700     273.3625   -1716.0887   -1700.8594   -347.47111    5055.0981 
    8800    296.58294   -1716.8665   -1700.3435   -6020.8926    5073.3154 
    8900    297.97683   -1716.4509   -1699.8503    -5790.864    5073.7345 
    9000    297.86165   -1716.0635   -1699.4693     661.1429    5053.0249 
    9100     295.9371   -1715.6514   -1699.1644     6125.407    5035.7092 
    9200    293.40628   -1715.3478   -1699.0018    3852.6035    5042.1507 
    9300    320.16261   -1716.7624   -1698.9258   -646.24384     5057.053 
    9400    310.70301     -1716.19   -1698.8804   -4927.3594    5070.1704 
    9500     297.6205   -1715.5065   -1698.9258   -4091.7565    5068.2426 
    9600    290.84748   -1715.2556   -1699.0522    574.99552    5053.8508 
    9700    296.79739   -1715.8138   -1699.2789    4268.5254    5042.0332 
    9800    320.13328   -1717.6428   -1699.8078    2602.7738    5044.8108 
    9900    290.29934   -1716.7338   -1700.5609   -1671.7315    5057.6099 
   10000    281.88771   -1716.8091   -1701.1048   -1987.8037    5059.7878 
Loop time of 4.86666 on 2 procs for 10000 steps with 432 atoms

Performance: 355.069 ns/day, 0.068 hours/ns, 2054.797 timesteps/s
99.5% CPU use with 2 MPI tasks x 1 OpenMP threads

MPI task timing breakdown:
Section |  min time  |  avg time  |  max time  |%varavg| %total
---------------------------------------------------------------
Pair    | 4.2616     | 4.2916     | 4.3217     |   1.5 | 88.18
Neigh   | 0.00044394 | 0.00044644 | 0.00044894 |   0.0 |  0.01
Comm    | 0.33594    | 0.36418    | 0.39242    |   4.7 |  7.48
Output  | 0.029815   | 0.030024   | 0.030232   |   0.1 |  0.62
Modify  | 0.14075    | 0.14205    | 0.14335    |   0.3 |  2.92
Other   |            | 0.03833    |            |       |  0.79

Nlocal:    216 ave 227 max 205 min
Histogram: 1 0 0 0 0 0 0 0 0 1
Nghost:    2038 ave 2043 max 2033 min
Histogram: 1 0 0 0 0 0 0 0 0 1
Neighs:    14951 ave 15708 max 14194 min
Histogram: 1 0 0 0 0 0 0 0 0 1

Total # of neighbors = 29902
Ave neighs/atom = 69.2176
Neighbor list builds = 1
Dangerous builds = 0
Setting up Verlet run ...
  Unit style    : metal
  Current step  : 10000
  Time step     : 0.002
Per MPI rank memory allocation (min/avg/max) = 4.309 | 4.309 | 4.309 Mbytes
Step Temp PotEng TotEng Press Volume v_my_lx f_1 f_2 f_3 f_4 f_5 
   10000    281.88771   -1716.8091   -1701.1048   -1987.8037    5059.7878    2.8574582            0            0            0            0            0 
   10100     265.9385   -1716.1305   -1701.3148   -660.74791    5054.5953    2.8564804    5054.0401    284.24895   -458.02677   -1701.2349    2.8563754 
   10200    277.97143   -1716.6911    -1701.205    2127.5617    5047.3467    2.8551142    5052.9026    283.46945   -80.221459   -1701.2594     2.856161 
   10300    285.41129   -1716.7429   -1700.8423    597.88092     5051.337    2.8558664    5052.2013    283.80417    81.666953   -1701.1876    2.8560289 
   10400    271.69455   -1715.4178   -1700.2814   -1827.2774    5059.3295    2.8573719     5052.594    285.05085    41.188284   -1701.0322    2.8561029 
   10500     281.7295   -1715.4427   -1699.7473    -3579.949    5064.8887     2.858418    5053.1036    286.76987   -20.454896    -1700.825    2.8561989 
   10600    278.88294   -1714.9822   -1699.4453   -2404.9997    5062.4141    2.8579525    5053.5551     288.6243   -129.64256   -1700.6167    2.8562838 
   10700    313.22696   -1716.7107   -1699.2605    3863.1226    5042.9284    2.8542809    5053.6495    290.13136   -105.91274   -1700.4344    2.8563014 
   10800    312.27073   -1716.5151   -1699.1182    8130.0066    5029.4227    2.8517306    5053.3481    291.45444     30.82351   -1700.2797    2.8562443 
   10900    303.45116   -1716.0063   -1699.1007    1236.2213    5049.0717    2.8554395    5053.2361    292.58348    125.87596   -1700.1495    2.8562227 
   11000    300.86274   -1715.7666   -1699.0052   -9009.4581    5081.9046    2.8616155    5053.5337     293.5979    74.628586   -1700.0389    2.8562784 
   11100    289.39229   -1715.0969   -1698.9745   -8767.8695    5084.5476    2.8621115    5054.1085    294.23406   -66.017022   -1699.9449    2.8563861 
   11200    291.87128   -1715.3399   -1699.0795   -342.87408     5055.166    2.8565879     5054.341     294.8098   -110.07167   -1699.8676    2.8564297 
   11300    300.82241   -1715.8668   -1699.1076    7756.7926    5029.8187    2.8518054    5054.1821    295.32111   -39.896921   -1699.8067    2.8563996 
   11400    298.21665   -1715.9278   -1699.3138    7124.3873    5031.7781    2.8521757      5053.95    295.72226    42.425463   -1699.7644    2.8563557 
   11500    297.23301   -1716.2382    -1699.679   -179.36427    5055.7796    2.8567034    5053.8793    295.91181    64.167644   -1699.7456    2.8563424 
   11600    296.27825   -1716.5629   -1700.0569   -5724.3488    5070.8055    2.8595307    5053.9574    295.79523    19.167452   -1699.7532    2.8563572 
   11700    289.88817   -1716.6019   -1700.4519   -2644.5043    5061.1501    2.8577146    5054.0378    295.55117    -22.54265   -1699.7837    2.8563724 
   11800    289.99614   -1716.8675   -1700.7115    1257.8683    5047.0377     2.855056    5053.9674    295.18646   -24.280187   -1699.8287    2.8563592 
   11900    290.46066   -1716.9563   -1700.7744     4279.351    5040.0439    2.8537366    5053.7973    294.84376    1.1925672   -1699.8779    2.8563273 
   12000    295.53971    -1717.099   -1700.6342    1171.7781     5050.749    2.8557556    5053.6572    294.45883     22.94838   -1699.9204     2.856301 
   12100     286.9149   -1716.1543     -1700.17   -2565.1602    5061.2495    2.8577333    5053.6062    294.27486    19.851207   -1699.9446    2.8562915 
   12200    311.45093   -1716.7826   -1699.4313   -2737.5055    5061.4561    2.8577722    5053.6715    294.32655   -7.7764133   -1699.9384    2.8563038 
   12300    297.11504   -1715.3608   -1698.8081    -149.5978    5054.2059     2.856407    5053.7273    294.68844   -21.387619   -1699.9014    2.8563144 
   12400    324.28459   -1716.5351   -1698.4689    3264.2514    5044.8972    2.8546523     5053.699    295.15576   -8.1118879   -1699.8477    2.8563092 
   12500    315.62707   -1715.9645   -1698.3806    2487.4688    5046.2627    2.8549098     5053.656    295.64594    14.604308   -1699.7903    2.8563011 
   12600    317.12209   -1716.1266   -1698.4593   -1540.5416    5057.3799    2.8570048    5053.6561    296.10628     21.59054   -1699.7371    2.8563012 
   12700    310.47498   -1715.9197   -1698.6228   -3696.9323      5065.65    2.8585613      5053.73    296.54689    4.8585905   -1699.6924    2.8563152 
   12800    300.28402    -1715.633   -1698.9039   -3845.9121    5064.8329    2.8584076    5053.7827     296.8488   -12.485173    -1699.659    2.8563251 
   12900    297.85351    -1715.852   -1699.2583    1637.6039    5049.2697    2.8554768    5053.8029    297.00673   -17.827511    -1699.639     2.856329 
   13000    285.76381   -1715.5479   -1699.6277    5094.2496    5038.2706    2.8534019    5053.7285    297.02216    4.6705222   -1699.6326     2.856315 
   13100    288.37261   -1716.0884   -1700.0228    2377.3486    5045.4856    2.8547633    5053.6622    296.99189     18.67072   -1699.6389    2.8563025 
   13200    282.51437   -1716.1192     -1700.38   -4294.3898    5064.8418    2.8584092    5053.6465    296.88771    19.780383   -1699.6565    2.8562996 
   13300    286.08624   -1716.6534   -1700.7152   -8001.6708    5077.6815    2.8608226    5053.7041    296.62694   -10.983481   -1699.6836    2.8563104 
   13400    279.35206   -1716.8732   -1701.3102   -3183.9684    5061.5791    2.8577953    5053.7642    296.24297    -42.05157   -1699.7219    2.8563216 
   13500    276.11974   -1717.2827   -1701.8997    8363.9471    5022.8721    2.8504919    5053.6796     295.7772    -29.32244   -1699.7753    2.8563055 
   13600    281.05053   -1717.9204   -1702.2627     12696.43    5011.1536    2.8482734    5053.4568    295.22803    21.873682   -1699.8411    2.8562632 
   13700    262.36332   -1717.0321   -1702.4155    1075.9042    5046.8517    2.8550209    5053.3045    294.64719    48.851677   -1699.9097    2.8562344 
   13800    269.18726   -1716.8854   -1701.8887   -8117.2161    5078.9551    2.8610618    5053.3234     294.0861    25.724842   -1699.9691    2.8562378 
   13900    280.42499   -1716.7353   -1701.1125   -7131.7217    5075.2549    2.8603668    5053.3808    293.71587    -8.821431   -1700.0089    2.8562485 
   14000    286.78323   -1716.5184   -1700.5414   -694.12009    5053.3462     2.856245    5053.4031    293.56998   -17.530853   -1700.0284    2.8562527 
   14100    300.39389   -1716.8456   -1700.1103    5807.0248    5036.5079    2.8530691    5053.3721    293.55457   -1.5206799   -1700.0352    2.8562469 
   14200    300.91226   -1716.5276   -1699.7635    3033.1122    5044.1427      2.85451    5053.3166     293.5296    15.189887    -1700.033    2.8562365 
   14300    287.42628   -1715.4345   -1699.4216   -833.45061    5057.0519     2.856943    5053.3227     293.6115    19.088759   -1700.0227    2.8562377 
   14400    290.71727   -1715.2628   -1699.0666    -2818.452    5063.6852    2.8581916    5053.3696    293.74425    10.315657   -1700.0048    2.8562466 
   14500    312.27987     -1716.17   -1698.7726   -4029.4133    5065.2966    2.8584948    5053.4315    293.97373   -1.8841975   -1699.9805    2.8562583 
   14600    317.64288   -1716.2558   -1698.5596    1609.5307     5050.588    2.8557253    5053.4826    294.29286   -9.1195229   -1699.9517    2.8562679 
   14700    314.62178     -1715.93   -1698.4021    4318.2541    5041.6347    2.8540368    5053.4658    294.54147    3.3975801   -1699.9202    2.8562648 
   14800     317.7584   -1716.1127   -1698.4101     1889.336    5048.7042    2.8553702    5053.4505    294.81144    17.665919   -1699.8885    2.8562619 
   14900    295.25549   -1715.0165   -1698.5675   -1768.5841    5062.7714    2.8580197    5053.4868    295.05751    16.579426   -1699.8594    2.8562688 
   15000    306.51991   -1716.0345   -1698.9579   -5624.5399    5071.4313    2.8596483    5053.5517    295.23375    3.6813817    -1699.837    2.8562811 
   15100    294.32403   -1716.0441   -1699.6469    -2130.569    5061.7645    2.8578302    5053.5982    295.33405   -7.0373928   -1699.8264    2.8562898 
   15200    297.41158   -1716.8484   -1700.2793    2522.2804     5044.542    2.8545853     5053.595    295.28887    -4.248315   -1699.8295    2.8562893 
   15300    293.11609   -1716.9635   -1700.6337    5382.3211    5036.3455    2.8530384    5053.5499    295.19694    5.8682798    -1699.842    2.8562808 
   15400    294.61258   -1717.1495   -1700.7363    909.45534    5048.8779    2.8554029    5053.5158    295.07709    13.738143   -1699.8581    2.8562744 
   15500    307.34734   -1717.7354   -1700.6128   -3794.6194    5064.7484    2.8583917     5053.516    294.96979     11.42308   -1699.8731    2.8562745 
   15600     287.1628   -1716.3183   -1700.3201   -4861.0975    5069.9075    2.8593619    5053.5443    294.84539   0.54367606   -1699.8841    2.8562798 
   15700     282.5566   -1715.6824   -1699.9408    -1058.172    5057.1968    2.8569703    5053.5688    294.82509   -7.1693446   -1699.8884    2.8562844 
   15800      285.388   -1715.4349   -1699.5356    4480.7837    5037.7112    2.8532962    5053.5589    294.86179   -5.7962726   -1699.8856    2.8562826 
   15900    304.80083    -1716.226   -1699.2452    7068.2819    5031.9923    2.8522161    5053.5098    294.91463    9.4042257   -1699.8772    2.8562733 
   16000    311.47074   -1716.5113   -1699.1589    1172.0574    5050.1785    2.8556481    5053.4806    295.01761    21.785354   -1699.8657    2.8562678 
   16100    306.44028   -1716.1425   -1699.0703   -5987.1115    5072.4387    2.8598376    5053.5117    295.10727    12.772347   -1699.8532    2.8562737 
   16200     292.5124   -1715.3636   -1699.0675   -5956.3151    5073.8117    2.8600957    5053.5725    295.24195   -2.8694662   -1699.8406    2.8562851 
   16300    308.52896   -1716.3217   -1699.1332    102.72268     5054.368    2.8564375    5053.6154    295.34255   -10.418175   -1699.8288    2.8562932 
   16400    294.88199   -1715.5922    -1699.164    4794.6468    5039.0426    2.8535476    5053.6139     295.4041   -5.5665416    -1699.818    2.8562929 
   16500    292.81042   -1715.5574   -1699.2446    4642.5614     5040.463    2.8538157     5053.571    295.50097    10.170267   -1699.8085    2.8562848 
   16600    294.99013   -1715.7981   -1699.3639    202.78282    5052.9545    2.8561712    5053.5737    295.57873    11.582902   -1699.8008    2.8562853 
   16700    296.91529    -1716.072   -1699.5305   -2578.2504    5062.1807    2.8579085    5053.6042    295.62491    5.1120799   -1699.7954    2.8562911 
   16800    288.50381    -1715.901   -1699.8281   -1820.0053    5059.3049    2.8573672     5053.627    295.64176   0.01287881   -1699.7935    2.8562954 
   16900    307.58754   -1717.3843   -1700.2482    404.32151    5052.8384    2.8561494     5053.625    295.59162   0.34708623    -1699.797    2.8562951 
   17000    293.73008   -1717.0512   -1700.6872    1062.2104    5047.5893      2.85516    5053.6077    295.51977    2.8702222   -1699.8068    2.8562919 
   17100    283.89435   -1716.8127   -1700.9966     1171.506    5047.8393    2.8552071    5053.5817    295.39881    5.8715775   -1699.8216     2.856287 
   17200    280.90885   -1716.7378    -1701.088   -734.95512     5054.608    2.8564827    5053.5617    295.26082    7.1105585   -1699.8388    2.8562833 
   17300    276.49641   -1716.3028   -1700.8988   -2709.0746    5060.7043    2.8576307    5053.5502    295.12216     3.475419   -1699.8549    2.8562811 
   17400    300.29683    -1717.101   -1700.3712   -642.39718    5053.9543    2.8563596    5053.5372    295.00491   0.53633457   -1699.8659    2.8562787 
   17500    293.89081   -1715.9783   -1699.6053    1805.8272    5047.2938    2.8551043    5053.5275    295.02718  -0.39162155   -1699.8674    2.8562769 
   17600    290.70013   -1715.2203   -1699.0251     2088.505    5046.7488    2.8550015    5053.5252    295.10343    4.2025094   -1699.8598    2.8562765 
   17700    302.60388   -1715.6165   -1698.7581    207.21654    5055.4602    2.8566433    5053.5214    295.20364    8.0693007   -1699.8469    2.8562758 
   17800    312.60401   -1716.0615    -1698.646   -3079.2583    5066.0205    2.8586309    5053.5505    295.31494    3.1385319   -1699.8322    2.8562813 
   17900    304.75698   -1715.6476   -1698.6692    -3020.005    5062.8824    2.8580406    5053.5835    295.45126   -2.6379393   -1699.8172    2.8562875 
   18000    307.58478   -1715.9229    -1698.787    2537.5944    5045.0215    2.8546757    5053.6054    295.58418   -5.4918688   -1699.8035    2.8562917 
   18100    314.62723   -1716.4804   -1698.9521    5798.7316    5033.6265    2.8525249    5053.5905    295.69645     2.292669   -1699.7919    2.8562889 
   18200    297.91523   -1715.8758   -1699.2786    4152.8123    5039.6144    2.8536555    5053.5537    295.75234    15.120554   -1699.7836    2.8562819 
   18300    300.14686   -1716.4188   -1699.6973   -4055.4957    5065.3929    2.8585129    5053.5425    295.75953    17.088305   -1699.7797    2.8562798 
   18400    295.28802   -1716.5887   -1700.1379   -10687.907    5085.1362     2.862222    5053.5867    295.77499    2.7518704   -1699.7814     2.856288 
   18500    295.41373   -1717.2286   -1700.7707   -4299.1738    5064.8975    2.8584197    5053.6283    295.69211    -12.50971   -1699.7894    2.8562958 
   18600    271.37661   -1716.2761   -1701.1574    6624.9461    5034.7308    2.8527334    5053.6027    295.56645   -7.5857639    -1699.803     2.856291 
   18700    279.64883   -1716.9166    -1701.337    7628.3958    5030.2586    2.8518885    5053.5443    295.40864    9.1845768   -1699.8199    2.8562799 
   18800    272.39176   -1716.4861   -1701.3109    131.44541    5051.5607    2.8559086     5053.515    295.25609    14.669964   -1699.8373    2.8562744 
   18900     287.3221    -1716.624    -1700.617   -5114.4331     5068.535    2.8591038     5053.533    295.13954    6.9522394   -1699.8505    2.8562778 
   19000    317.94116   -1717.2214   -1699.5086   -4933.3024    5069.3255    2.8592525     5053.568    295.13687   -1.5846359   -1699.8527    2.8562844 
   19100    311.24086   -1716.2647   -1698.9251    1647.9545    5051.5791    2.8559121    5053.5903    295.19963   -5.3042409   -1699.8452    2.8562886 
   19200    316.65237   -1716.2508   -1698.6098    4939.5623    5039.9674    2.8537221     5053.589    295.29765    2.4616703   -1699.8333    2.8562884 
   19300    298.30952   -1715.1173   -1698.4982    3027.6797    5046.4667    2.8549483    5053.5925    295.42101    9.2066013   -1699.8194     2.856289 
   19400    284.51196   -1714.3356   -1698.4851   -2073.8663    5062.2829    2.8579278     5053.618    295.53352      8.50923   -1699.8051    2.8562939 
   19500    304.37906   -1715.5553    -1698.598   -3399.1212    5069.0938    2.8592089    5053.6521    295.64891     4.298381   -1699.7917    2.8563003 
   19600    302.96027   -1715.7509   -1698.8726   -3031.1481    5064.5291    2.8583504    5053.6771    295.75291   -0.4768934   -1699.7807     2.856305 
   19700    311.92213   -1716.6446    -1699.267    1360.1043     5048.788     2.855386    5053.6915    295.80698   -1.9264677   -1699.7733    2.8563077 
   19800    307.72486   -1716.8404   -1699.6967    4121.5474    5040.3294    2.8537905    5053.6795     295.8445    2.3314248   -1699.7703    2.8563055 
   19900    289.84097   -1716.2569   -1700.1096    1674.9088         5049    2.8554259    5053.6623    295.83006      8.69011   -1699.7718    2.8563023 
Finished 300 K - next row contains averaged properties
   20000    303.24897   -1717.2753   -1700.3809   -3325.9347    5063.0191    2.8580663    5053.6626    295.78611    5.1723804   -1699.7767    2.8563023 
Loop time of 5.97124 on 2 procs for 10000 steps with 432 atoms

Performance: 289.387 ns/day, 0.083 hours/ns, 1674.693 timesteps/s
99.4% CPU use with 2 MPI tasks x 1 OpenMP threads

MPI task timing breakdown:
Section |  min time  |  avg time  |  max time  |%varavg| %total
---------------------------------------------------------------
Pair    | 4.957      | 5.1107     | 5.2644     |   6.8 | 85.59
Neigh   | 0.00043082 | 0.0004369  | 0.00044298 |   0.0 |  0.01
Comm    | 0.36292    | 0.51725    | 0.67158    |  21.5 |  8.66
Output  | 0.031667   | 0.031888   | 0.032109   |   0.1 |  0.53
Modify  | 0.26289    | 0.26522    | 0.26755    |   0.5 |  4.44
Other   |            | 0.04578    |            |       |  0.77

Nlocal:    216 ave 219 max 213 min
Histogram: 1 0 0 0 0 0 0 0 0 1
Nghost:    2048 ave 2051 max 2045 min
Histogram: 1 0 0 0 0 0 0 0 0 1
Neighs:    14895.5 ave 15108 max 14683 min
Histogram: 1 0 0 0 0 0 0 0 0 1

Total # of neighbors = 29791
Ave neighs/atom = 68.9606
Neighbor list builds = 1
Dangerous builds = 0
System init for write_data ...
Setting up Verlet run ...
  Unit style    : metal
  Current step  : 0
  Time step     : 0.002
Per MPI rank memory allocation (min/avg/max) = 4.309 | 4.309 | 4.309 Mbytes
Step Temp PotEng TotEng Press Volume 
       0          600   -1717.2753   -1683.8486    161.80187    5063.0191 
     100    437.51764   -1707.1849   -1682.8103   -363.71761    5070.7201 
     200    438.19701   -1705.3736   -1680.9612   -2351.1246    5080.4034 
     300    480.07231   -1705.9998   -1679.2545   -1027.9981    5080.1815 
     400    478.71916   -1703.8209   -1677.1509    2425.1035    5073.8799 
     500    496.09975    -1702.573   -1674.9348    933.02742    5074.9592 
     600    547.45975   -1703.1772   -1672.6776   -621.16383    5086.5234 
     700     564.8275   -1701.9381    -1670.471   -3024.7507      5095.58 
     800    565.83667   -1699.8625   -1668.3391   -3940.7931    5101.8537 
     900    591.53494   -1699.3128   -1666.3578     184.0263     5091.299 
    1000    610.93105   -1698.5826    -1664.547    4429.0162    5079.2586 
    1100    644.38579   -1698.9304   -1663.0309    2444.2718    5087.0404 
    1200    615.88513   -1696.1676   -1661.8559   -2950.2691    5107.9993 
    1300    653.29094   -1697.4306    -1661.035   -6927.4533    5120.9832 
    1400    619.58092   -1695.3003   -1660.7828   -1513.7575    5105.2036 
    1500    634.39308   -1696.3249   -1660.9821    4267.3784    5081.5473 
    1600    607.28653   -1695.5297   -1661.6971    5310.6729    5078.9365 
    1700    595.69291   -1696.0209   -1662.8341    358.57337    5098.2785 
    1800    619.37428   -1698.4777   -1663.9717    -9054.042    5121.8129 
    1900     599.7141   -1698.4856   -1665.0748   -6116.0804    5111.9328 
    2000    567.27415   -1697.5413   -1665.9378    2064.9117     5081.578 
    2100    617.39179   -1700.8424   -1666.4468    6824.7895    5064.4537 
    2200    599.90038    -1700.133   -1666.7119     1907.625     5082.505 
    2300    568.48887   -1698.2305   -1666.5594   -7380.0905     5112.748 
    2400    574.61934   -1698.0407    -1666.028   -7167.4732    5117.9233 
    2500    582.48263   -1697.6974   -1665.2466    1945.4492    5086.1405 
    2600    610.50843   -1698.1452   -1664.1331    7805.4009    5062.4838 
    2700    587.77321   -1696.0319   -1663.2864    2805.8433    5084.7122 
    2800    638.83172   -1698.1037   -1662.5136   -6053.4257    5117.1401 
    2900    611.68312   -1696.1274   -1662.0498   -7421.1162    5116.3249 
    3000    636.05221   -1697.3639   -1661.9287   -1108.6746    5095.2675 
    3100    598.66501   -1695.4414   -1662.0891    4035.2484     5084.333 
    3200    610.83292   -1696.7572    -1662.727    2077.7148    5092.0866 
    3300    570.42029   -1695.5914   -1663.8127   -111.71197    5097.6418 
    3400     594.7226    -1698.222   -1665.0893   -2362.4469    5103.2051 
    3500    591.43807   -1698.9809   -1666.0312    18.514633    5093.6775 
    3600    566.57155    -1698.032   -1666.4676    2326.0779    5084.6374 
    3700    613.49871   -1700.6832   -1666.5045    1856.9209    5084.6937 
    3800    601.30733   -1699.7553   -1666.2558   -562.91827    5091.2585 
    3900    586.55051   -1698.4652   -1665.7878   -2073.7275    5104.2706 
    4000    590.79671   -1698.2072   -1665.2933   -1922.8241    5099.2189 
    4100    596.68655   -1698.0922   -1664.8501    192.67049    5091.3868 
    4200    584.40067   -1697.0371   -1664.4795    4602.0866    5081.0344 
    4300    600.60505   -1697.7069   -1664.2465     3788.444    5084.0465 
    4400    597.81888   -1697.4041   -1664.0989   -2604.1788    5102.7966 
    4500    613.90645   -1698.1561   -1663.9547   -4835.3922    5111.8061 
    4600    596.41845    -1697.141   -1663.9139    -1489.151    5102.2801 
    4700    601.27964   -1697.4063   -1663.9083    5877.9653    5078.2129 
    4800    628.11002   -1698.9475   -1663.9548    6338.3847    5071.0055 
    4900    608.98157   -1698.1093   -1664.1823   -2819.0907     5102.808 
    5000    591.94661    -1697.414    -1664.436   -10729.032    5134.8826 
    5100    563.23856    -1696.749   -1665.3704   -6806.5547    5117.1609 
    5200    605.02892   -1700.1177   -1666.4109    8469.6225    5066.3029 
    5300    585.46394   -1699.7928    -1667.176    13737.999    5049.4946 
    5400    568.50088   -1699.4268    -1667.755   -481.05855    5088.5571 
    5500    583.64543   -1700.1404   -1667.6248   -9362.8325    5121.6011 
    5600     587.5172     -1699.77   -1667.0388   -5359.1561    5110.3857 
    5700    566.60736   -1697.4027   -1665.8364    4968.9973    5078.7709 
    5800    595.79548   -1697.6834   -1664.4909     5533.415    5075.5137 
    5900    607.96497   -1697.5224    -1663.652    313.55479    5096.7047 
    6000    588.82047   -1695.9948   -1663.1909   -3655.8433    5110.5407 
    6100      608.034   -1696.9005   -1663.0262   -2198.5632    5107.9871 
    6200    616.04054    -1697.371   -1663.0506    2991.3509    5087.7321 
    6300    614.18897   -1697.4668   -1663.2497    4632.8473    5082.3013 
    6400    596.05578   -1696.8676   -1663.6606     1105.057    5092.4904 
    6500     583.2441   -1696.7689   -1664.2757   -3553.5723    5109.1795 
    6600    586.63577   -1697.8679   -1665.1857   -5164.6026    5109.7882 
    6700     549.1461   -1697.0623   -1666.4688    1629.5152    5089.2142 
    6800    559.27982   -1698.8629   -1667.7048    5798.7854    5070.6102 
    6900    560.47147   -1699.7129   -1668.4884    3233.1477    5077.7525 
    7000    547.20244   -1699.0738   -1668.5886   -5156.3777    5106.2049 
    7100    543.79093   -1698.3056   -1668.0104   -7256.7021    5116.4197 
    7200     613.9826   -1701.1623   -1666.9567   -2597.7274    5097.2359 
    7300     589.3364   -1698.5197   -1665.6871    9230.3041    5064.1188 
    7400    598.51698   -1698.4195   -1665.0755    8200.9565    5062.3997 
    7500     593.6265   -1697.9385   -1664.8669   -3323.8691    5106.9503 
    7600    596.31145   -1697.6186   -1664.3974   -11902.027    5134.3623 
    7700    570.96353   -1695.9955   -1664.1865   -2561.9551    5108.4128 
    7800    588.26978   -1696.5424   -1663.7693     8187.236    5065.9955 
    7900    604.48796   -1697.0812   -1663.4045    8565.9602     5064.542 
    8000    634.13669   -1698.5144    -1663.186   -1059.3144    5099.5228 
    8100    609.66179   -1696.8643   -1662.8994    -8787.529    5129.4984 
    8200    609.28055   -1696.8315   -1662.8878    -4120.575    5110.1857 
    8300    611.31166   -1697.0805   -1663.0237    5862.4226    5079.3535 
    8400    585.19223   -1696.0713   -1663.4696    7626.9191    5073.5287 
    8500    580.80781   -1696.7072   -1664.3497    -134.1009    5096.5976 
    8600    575.32498   -1697.4094   -1665.3574   -5666.3886     5113.143 
    8700    592.59996   -1699.3573   -1666.3429   -1998.0185    5100.7087 
    8800    571.53602   -1698.8415   -1667.0006    4303.9824    5078.8446 
    8900    541.53947   -1697.3819   -1667.2121    6615.2699    5071.9161 
    9000    591.62714   -1699.9968   -1667.0366    169.03197    5089.3827 
    9100    585.82412   -1698.8157   -1666.1787   -3760.9852    5106.1297 
    9200    578.64854   -1696.7495   -1664.5123   -2505.6415    5103.0645 
    9300    591.12348   -1695.8466   -1662.9144    2553.8603    5086.0694 
    9400    629.52334   -1697.3469   -1662.2755    2993.5072     5086.696 
    9500    596.51059   -1695.4309   -1662.1986   -804.17732    5101.5688 
    9600    586.53755   -1695.0931   -1662.4165   -3148.4585    5106.6759 
    9700    615.10938   -1697.1345    -1662.866   -32.132036    5095.1077 
    9800    652.39545   -1699.8442   -1663.4985    2385.0061    5083.7922 
    9900    611.69472   -1698.3533   -1664.2751    1864.5163    5087.2025 
   10000    566.59258    -1696.632   -1665.0664    330.91057    5092.4405 
Loop time of 5.17752 on 2 procs for 10000 steps with 432 atoms

Performance: 333.751 ns/day, 0.072 hours/ns, 1931.427 timesteps/s
99.7% CPU use with 2 MPI tasks x 1 OpenMP threads

MPI task timing breakdown:
Section |  min time  |  avg time  |  max time  |%varavg| %total
---------------------------------------------------------------
Pair    | 4.5979     | 4.6177     | 4.6375     |   0.9 | 89.19
Neigh   | 0.00043297 | 0.00043845 | 0.00044394 |   0.0 |  0.01
Comm    | 0.32835    | 0.34967    | 0.37099    |   3.6 |  6.75
Output  | 0.030112   | 0.030303   | 0.030495   |   0.1 |  0.59
Modify  | 0.13953    | 0.14138    | 0.14322    |   0.5 |  2.73
Other   |            | 0.03805    |            |       |  0.73

Nlocal:    216 ave 217 max 215 min
Histogram: 1 0 0 0 0 0 0 0 0 1
Nghost:    1964 ave 1965 max 1963 min
Histogram: 1 0 0 0 0 0 0 0 0 1
Neighs:    15087 ave 15153 max 15021 min
Histogram: 1 0 0 0 0 0 0 0 0 1

Total # of neighbors = 30174
Ave neighs/atom = 69.8472
Neighbor list builds = 1
Dangerous builds = 0
Setting up Verlet run ...
  Unit style    : metal
  Current step  : 10000
  Time step     : 0.002
Per MPI rank memory allocation (min/avg/max) = 4.309 | 4.309 | 4.309 Mbytes
Step Temp PotEng TotEng Press Volume v_my_lx f_1 f_2 f_3 f_4 f_5 
   10000    566.59258    -1696.632   -1665.0664    330.91057    5092.4405    2.8635917            0            0            0            0            0 
   10100    569.03598   -1697.4341   -1665.7325   -1729.6037    5099.2585    2.8648691    5090.8912    593.36669    204.10429   -1665.4072    2.8633009 
   10200    605.95609   -1699.9342   -1666.1757   -1569.1454    5096.4861    2.8643498    5091.1821    587.90534    350.96539    -1665.689    2.8633556 
   10300    585.05002   -1699.0122   -1666.4184    998.09397    5083.8497    2.8619806    5090.6791    585.03513    323.75053   -1665.9004    2.8632611 
   10400    553.51182   -1697.2262   -1666.3894    3881.9075    5077.8867    2.8608611    5091.4504    583.76499    1.4893595   -1666.0347    2.8634056 
   10500     566.8347   -1697.3487   -1665.7697   -1606.7821    5097.2392    2.8644909    5091.5373    583.99959   -87.847323   -1666.0546    2.8634217 
   10600    580.06428   -1696.5736   -1664.2576   -3883.7653    5108.9278    2.8666788    5091.2371    585.45633    88.098986   -1665.8882    2.8633653 
   10700    605.14961   -1696.4856    -1662.772   -1451.1434    5099.2574    2.8648689    5091.3717    588.01697    190.33049   -1665.5426    2.8633905 
   10800    613.26317   -1696.0024   -1661.8368    3793.5573    5082.2711    2.8616843    5092.1381    591.48848    113.20758   -1665.1301     2.863534 
   10900     611.3048   -1695.5178   -1661.4613    3253.0452    5085.0143    2.8621991    5093.0888    595.00971   -24.961273   -1664.7388    2.8637121 
   11000    632.01491    -1696.743   -1661.5327   -2799.2099    5106.0669    2.8661436     5093.632    597.91706   -61.578622   -1664.4103    2.8638137 
   11100    614.38104   -1696.2085   -1661.9806   -6065.8288    5115.5382    2.8679146    5093.8032    599.80515    10.925592   -1664.1667    2.8638458 
   11200    607.53277   -1696.7405   -1662.8942   -4442.9422    5110.5396    2.8669802    5093.7715    600.91567    104.98649   -1664.0215    2.8638398 
   11300    629.59003   -1699.1105   -1664.0353    1608.7961    5086.4654    2.8624713    5093.8435    601.52384    114.53818   -1663.9778    2.8638531 
   11400    603.22021   -1698.6013   -1664.9952    6753.4696    5071.4418    2.8596503    5094.1254    600.88098    31.292513    -1664.019    2.8639059 
   11500    601.09487   -1699.1397    -1665.652    2666.5025    5082.2435    2.8616791    5094.3663    600.25937   -69.806344   -1664.1088    2.8639509 
   11600    578.39026   -1698.0842   -1665.8614    -4333.877    5109.1007    2.8667111     5094.209     599.4899   -58.784702   -1664.2122    2.8639212 
   11700    599.99611   -1699.1744    -1665.748   -9100.3666    5120.5176    2.8688449    5093.8344    598.54065    40.189295   -1664.3078    2.8638509 
   11800    594.54236   -1698.6963   -1665.5737   -1475.5751    5095.7099    2.8642044    5093.4848    597.84729     124.3353    -1664.383    2.8637852 
   11900    594.87568   -1698.2716   -1665.1304     11401.99    5060.0917    2.8575153    5093.6436     597.4859    74.611019   -1664.4337    2.8638147 
   12000    599.54308   -1698.1519   -1664.7506    9148.4698    5064.0544    2.8582611    5094.0892    597.23675   -44.537325   -1664.4614    2.8638979 
   12100    600.13258   -1697.9144   -1664.4803   -3096.6679    5106.2123    2.8661708    5094.2409     597.0814   -79.026145   -1664.4673     2.863926 
   12200    606.78274   -1697.9206   -1664.1161   -10160.908     5129.859    2.8705884    5093.9888    597.04111    11.467014   -1664.4592    2.8638785 
   12300    581.82229    -1696.465    -1664.051   -1889.2859    5106.6522    2.8662531    5093.7633    597.27866    99.722391   -1664.4427    2.8638361 
   12400    601.02235   -1697.4334   -1663.9498    7333.4297    5071.7442    2.8597071    5093.8555      597.481    74.628151   -1664.4229    2.8638532 
   12500    599.47489   -1697.3104    -1663.913    8238.8205    5069.9616     2.859372    5094.2073    597.59102    -9.460054    -1664.404    2.8639191 
   12600    587.33233   -1696.7194   -1663.9985   -286.64205    5099.2478    2.8648671    5094.3668    597.79261   -30.342426   -1664.3867     2.863949 
   12700    617.81357   -1698.4586   -1664.0395   -6239.2614    5113.7978    2.8675894    5094.2644    597.91692    9.8239028   -1664.3729    2.8639298 
   12800    588.44015   -1696.9286   -1664.1459    -3290.521    5107.4101    2.8663949    5094.2356    598.05447     41.54369    -1664.363    2.8639245 
   12900     603.1454   -1697.8534   -1664.2515    1791.7934     5088.823    2.8629135    5094.3116    598.17843    38.389785    -1664.357    2.8639388 
   13000    606.00348   -1698.1572   -1664.3961    4178.6218    5082.8461    2.8617922    5094.4032    598.15099    14.278885   -1664.3558    2.8639561 
   13100    583.41182   -1697.2553   -1664.7528    849.01454    5094.4544    2.8639692    5094.5527    598.05816   -8.4353434   -1664.3623    2.8639842 
   13200    597.76418   -1698.6683   -1665.3662   -1932.3271    5100.2424    2.8650534    5094.5212    598.02522    1.4427712   -1664.3831    2.8639784 
   13300    587.20849   -1698.8692   -1666.1551   -3383.6118    5105.6369    2.8660631    5094.4244    597.72387    24.498991   -1664.4248    2.8639603 
   13400    579.28472   -1699.0882   -1666.8156    2756.0941    5083.0756    2.8618353    5094.3376    597.19574    31.485969    -1664.486    2.8639441 
   13500    586.69333   -1699.8443    -1667.159    3399.1713    5077.9497     2.860873    5094.3882     596.4911   -1.3293272   -1664.5586    2.8639536 
   13600     563.8158   -1698.5343   -1667.1235    180.91405    5093.8279    2.8638518    5094.3627    595.97154   -13.935197   -1664.6312    2.8639489 
   13700    574.63999    -1698.574   -1666.5602    -5722.636    5110.4311    2.8669599    5094.2923    595.42558   -1.1668039   -1664.6921    2.8639357 
   13800    583.73758   -1698.0581   -1665.5375   -3592.2672    5106.0306    2.8661368    5094.0949    595.14627     40.95294   -1664.7285    2.8638987 
   13900     590.5912   -1697.1678   -1664.2653    6037.4949    5078.3561    2.8609493    5094.0822    595.09726    42.370226   -1664.7324    2.8638963 
   14000    623.17503   -1697.9509   -1663.2331    8004.6529    5067.3427    2.8588796     5094.308    595.23259    -3.153178   -1664.7076    2.8639386 
   14100    600.38667   -1696.2135   -1662.7653   -277.89269    5097.3851    2.8645182    5094.4451     595.6228   -34.663666   -1664.6647    2.8639642 
   14200     626.6806   -1697.4003   -1662.4873    -8205.115     5123.885    2.8694736    5094.4155    595.98695   -2.2509164   -1664.6152    2.8639586 
   14300    601.74807   -1696.0957   -1662.5717   -4797.3643    5112.9037    2.8674222    5094.3204    596.40826    37.030316   -1664.5666    2.8639408 
   14400    590.07245   -1695.7245   -1662.8509    3836.4427    5080.9407    2.8614346    5094.3615    596.77119    38.731368   -1664.5237    2.8639484 
   14500    620.13964   -1697.8383   -1663.2896    6841.2242    5075.0601    2.8603302    5094.5109    597.01028    1.8408553   -1664.4913    2.8639764 
   14600    594.81726   -1697.1934   -1664.0554   -181.49871    5092.4208     2.863588    5094.5835    597.14119     -17.6043   -1664.4731      2.86399 
   14700     579.1153   -1697.3127   -1665.0495   -6707.8653     5115.688    2.8679426    5094.5462    597.19034   -7.1837831   -1664.4743     2.863983 
   14800    561.30611   -1697.6127   -1666.3417   -5956.0177    5113.6862    2.8675685    5094.3582     596.9445    27.680589      -1664.5    2.8639478 
   14900    600.12144   -1701.1264    -1667.693    706.29153     5083.943    2.8619981    5094.2561    596.57687    36.707898   -1664.5518    2.8639286 
   15000    574.00987   -1700.4694   -1668.4906    5933.5012    5065.2709      2.85849    5094.2145    595.93224    14.277207   -1664.6237    2.8639208 
   15100    525.02029   -1697.9592   -1668.7098    4777.5725    5075.9705    2.8605012    5094.1978    595.21711   -14.616536    -1664.703    2.8639177 
   15200    574.18149   -1700.2493    -1668.261   -4242.6775    5100.7243    2.8651436    5094.0912     594.5719   -15.880615   -1664.7762    2.8638977 
   15300    585.14537   -1699.9387   -1667.3396   -6906.5459    5110.7991    2.8670287     5093.884    594.12036    13.339156   -1664.8336    2.8638588 
   15400     578.8156   -1698.8871   -1666.6407   -2050.5116    5098.2006     2.864671    5093.7804    593.73899    28.863444   -1664.8729    2.8638394 
   15500    594.76747   -1699.3262   -1666.1911    4353.2861    5074.7489    2.8602718    5093.7733    593.50212    18.912716   -1664.9007    2.8638381 
   15600    589.49884   -1698.5624   -1665.7207    5615.9247    5073.4776    2.8600329    5093.8155    593.36158    -6.342501   -1664.9199    2.8638461 
   15700    593.93657   -1698.1991   -1665.1102   -2003.2318    5099.1856    2.8648555    5093.8149    593.25655   -12.649144   -1664.9287     2.863846 
   15800    588.42951   -1697.0807   -1664.2987   -4651.6913    5110.9852    2.8670635    5093.7701    593.30398    2.7092602   -1664.9249    2.8638376 
   15900    634.63802    -1698.913   -1663.5566   -4089.1804    5107.0084    2.8663197    5093.7287    593.41074    24.825426   -1664.9078    2.8638298 
   16000    619.28309   -1697.3829   -1662.8819    2794.5368    5084.9844    2.8621935    5093.7439    593.69436    29.277848   -1664.8791    2.8638327 
   16100    611.71281   -1696.4164   -1662.3372    7816.4613    5071.9313    2.8597423     5093.855    593.98533    8.1169109   -1664.8417    2.8638535 
   16200    652.79104   -1698.4827   -1662.1149    2600.2114    5086.8664    2.8625465    5093.9888    594.32701   -13.660309   -1664.7992    2.8638786 
   16300    604.51243   -1695.8337   -1662.1557   -5257.3113    5115.2448    2.8678598    5094.0453    594.70817   -12.189225   -1664.7563    2.8638891 
   16400    624.37884   -1697.3497   -1662.5649    -9551.107    5126.8703    2.8700308    5094.0151    595.10406    13.223479   -1664.7186    2.8638835 
   16500    600.59523   -1697.0465   -1663.5867   -1182.4892     5100.853    2.8651677    5093.9677    595.32794    38.165022   -1664.6925    2.8638745 
   16600    595.16822   -1697.9222   -1664.7648    13425.277    5051.6127    2.8559184    5094.0305    595.40312      24.8899   -1664.6846    2.8638861 
   16700    591.65365   -1698.9333   -1665.9716    10243.437    5058.4379     2.857204    5094.2069    595.22495   -25.326585   -1664.6963    2.8639191 
   16800    553.42648   -1697.4475   -1666.6154   -7984.6292    5118.1768    2.8684076    5094.1989    595.00732   -30.811613   -1664.7195    2.8639173 
   16900    556.32718   -1697.5398   -1666.5462   -12057.913    5135.5024    2.8716406    5094.0061    594.77691    14.589893   -1664.7473    2.8638811 
   17000    567.33299   -1698.0845   -1666.4777   -3346.0999    5103.4644    2.8656566    5093.8779    594.60749    44.103433    -1664.773    2.8638569 
   17100    593.78717   -1698.9907   -1665.9102    8772.6144    5063.3303    2.8581249    5093.9106    594.40359    27.755077   -1664.7928     2.863863 
   17200    590.31208   -1698.1943   -1665.3073    7506.8825    5069.5284    2.8592906    5093.9905    594.26804   -1.6358213   -1664.8046    2.8638779 
   17300    582.04797   -1697.2224   -1664.7958   -345.25966    5097.6712    2.8645718    5094.0105    594.22874   -7.3111342   -1664.8077    2.8638817 
   17400    590.21156   -1697.2297   -1664.3484   -4724.9778    5111.7594    2.8672083    5093.9402    594.26788    10.754203   -1664.8042    2.8638685 
   17500    605.12717   -1697.8592   -1664.1468   -2639.6297    5100.5555     2.865112    5093.8872    594.34716    23.536617   -1664.7967    2.8638586 
   17600    588.08831   -1696.7505   -1663.9874    4776.7551    5080.0187    2.8612615    5093.9163    594.39187    15.576819   -1664.7869    2.8638641 
   17700    605.58867   -1697.6331    -1663.895    3298.0067    5083.1667    2.8618524    5093.9859    594.45265    1.0982392   -1664.7759    2.8638772 
   17800    599.33326   -1697.2217   -1663.8322   -1546.8596    5101.3515     2.865261    5093.9805    594.57655    1.6457355   -1664.7641    2.8638762 
   17900    590.58748   -1696.7115   -1663.8092   -3523.3693    5105.3737    2.8660139    5093.9503    594.66261    11.755631   -1664.7522    2.8638706 
   18000    612.42338   -1697.9684   -1663.8496   -2544.9488    5097.5047    2.8645406    5093.9548    594.74913    13.181087   -1664.7406    2.8638715 
   18100    594.01053   -1697.0414   -1663.9484    495.74267    5098.1961    2.8646702    5093.9515    594.84355     15.45524   -1664.7301    2.8638709 
   18200    600.10392   -1697.5796   -1664.1472    3589.1272    5084.3595    2.8620762    5093.9495    594.89145    14.705614   -1664.7216    2.8638706 
   18300     592.4857   -1697.5949   -1664.5868    3692.7431    5080.3247    2.8613189    5093.9539    594.92779     6.536698   -1664.7171    2.8638714 
   18400    607.10785   -1699.1173   -1665.2946     454.1104       5092.2    2.8635466    5093.9796    594.89515   -2.9284737   -1664.7197    2.8638763 
   18500    594.88857   -1699.1376   -1665.9957   -5118.7074    5107.9356    2.8664932    5093.9415    594.83588    4.4829257   -1664.7307    2.8638692 
   18600    582.59007   -1699.0285   -1666.5717    -3417.624     5102.589    2.8654927    5093.8424    594.68885    19.977531   -1664.7491    2.8638506 
   18700    605.64534   -1700.5629   -1666.8217    4084.0345    5074.4366    2.8602131    5093.7982    594.50253    20.784296   -1664.7717    2.8638423 
   18800    568.12312   -1698.3102   -1666.6595    8274.9663     5060.963    2.8576794    5093.8216    594.29512    1.6192298   -1664.7947    2.8638467 
   18900    568.67101   -1697.8156   -1666.1343    975.41865    5089.8811    2.8631119    5093.8388    594.14862   -14.206045   -1664.8131    2.8638499 
   19000    539.77414   -1695.0007   -1664.9293   -7470.2265     5122.542    2.8692229    5093.7653    594.08643   -1.4494605   -1664.8213    2.8638361 
   19100    593.45602   -1696.7577   -1663.6956     -7059.05    5116.8189    2.8681539    5093.6654    594.11326    24.686724   -1664.8157    2.8638173 
   19200    609.72523   -1696.7025    -1662.734     4501.285    5077.0168    2.8606978    5093.6688    594.30591    29.330022   -1664.7974    2.8638179 
   19300    647.39074   -1698.1807   -1662.1138     9171.239    5062.5994    2.8579873    5093.7607    594.46258    8.8554322   -1664.7716    2.8638351 
   19400    604.80103   -1695.8005   -1662.1063    3270.4659      5082.24    2.8616784     5093.843    594.71873   -12.744116   -1664.7431    2.8638505 
   19500    616.48468   -1696.6203   -1662.2752   -8525.4213     5126.797    2.8700171    5093.8593    594.94813    -10.97295   -1664.7157    2.8638535 
   19600     628.1974    -1697.643   -1662.6454   -12480.279    5136.9346    2.8719076    5093.7759      595.163     22.15602   -1664.6923    2.8638378 
   19700    569.28539   -1695.0936   -1663.3781    3346.8943    5086.2671    2.8624341    5093.7311    595.31709    40.940306   -1664.6744    2.8638292 
   19800    592.11381   -1696.7151   -1663.7278    15791.981    5040.4652    2.8538161    5093.8191    595.39892    15.998607    -1664.663    2.8638456 
   19900    627.86678    -1699.484   -1664.5049    7075.9248    5067.3642    2.8588837    5093.9414    595.40189   -17.451183   -1664.6582    2.8638684 
Finished 600 K - next row contains averaged properties
   20000    591.13149    -1697.803   -1664.8704   -10311.564    5125.9538    2.8698597    5093.9153    595.37785   -7.2949911   -1664.6581    2.8638634 
Loop time of 5.92713 on 2 procs for 10000 steps with 432 atoms

Performance: 291.541 ns/day, 0.082 hours/ns, 1687.158 timesteps/s
99.7% CPU use with 2 MPI tasks x 1 OpenMP threads

MPI task timing breakdown:
Section |  min time  |  avg time  |  max time  |%varavg| %total
---------------------------------------------------------------
Pair    | 5.1675     | 5.2007     | 5.2339     |   1.5 | 87.74
Neigh   | 0.00041723 | 0.00043261 | 0.00044799 |   0.0 |  0.01
Comm    | 0.35634    | 0.38801    | 0.41968    |   5.1 |  6.55
Output  | 0.030242   | 0.030484   | 0.030726   |   0.1 |  0.51
Modify  | 0.26339    | 0.26431    | 0.26524    |   0.2 |  4.46
Other   |            | 0.04316    |            |       |  0.73

Nlocal:    216 ave 219 max 213 min
Histogram: 1 0 0 0 0 0 0 0 0 1
Nghost:    1945 ave 1947 max 1943 min
Histogram: 1 0 0 0 0 0 0 0 0 1
Neighs:    15008 ave 15250 max 14766 min
Histogram: 1 0 0 0 0 0 0 0 0 1

Total # of neighbors = 30016
Ave neighs/atom = 69.4815
Neighbor list builds = 1
Dangerous builds = 0
System init for write_data ...
Setting up Verlet run ...
  Unit style    : metal
  Current step  : 0
  Time step     : 0.002
Per MPI rank memory allocation (min/avg/max) = 4.309 | 4.309 | 4.309 Mbytes
Step Temp PotEng TotEng Press Volume 
       0          900    -1697.803    -1647.663   -6725.9798    5125.9538 
     100    763.86221   -1689.0766    -1646.521     279.0612    5116.8042 
     200    746.46695    -1685.462   -1643.8755     1121.769    5123.9839 
     300    802.20117   -1686.4686   -1641.7771    917.99247     5124.887 
     400    821.16982   -1685.3411   -1639.5928    1476.7637    5126.3242 
     500    832.03673   -1683.4554   -1637.1017   -1497.7326    5139.4794 
     600    858.45669   -1682.4083   -1634.5827   -749.16274    5140.8069 
     700    893.79745   -1682.0137   -1632.2193     362.8603    5139.6316 
     800    856.67536   -1677.7985   -1630.0722   -5382.6452    5167.1079 
     900    884.88144   -1677.4776   -1628.1799    7870.2898     5124.993 
    1000    897.17368   -1676.6638   -1626.6812    623.36408    5151.9193 
    1100    910.54813   -1676.1169   -1625.3892   -6984.1253    5182.6663 
    1200    971.72618   -1678.6529    -1624.517    10416.009    5116.9078 
    1300    939.38393   -1676.7493   -1624.4152   -4346.1411    5172.0174 
    1400    888.69276   -1674.2045   -1624.6944    -3832.114    5175.4268 
    1500    936.41465   -1677.6132   -1625.4445    11003.108    5111.3813 
    1600    895.11253   -1676.7283   -1626.8606   -8059.5554     5178.803 
    1700    932.39769    -1680.324    -1628.379   -491.31583    5148.3464 
    1800    913.78701   -1680.5218   -1629.6137    7905.0229    5115.2493 
    1900    844.39159   -1677.6062   -1630.5642   -9014.6395    5187.4067 
    2000    923.25154   -1682.6092   -1631.1738    5970.3535    5120.6934 
    2100    907.14452   -1681.9937   -1631.4557      1350.32    5136.1799 
    2200    892.83629   -1680.9407   -1631.1998   -7133.6246    5171.7222 
    2300    851.32866   -1677.8081   -1630.3796    4581.7593    5127.5585 
    2400    919.05992    -1679.737   -1628.5351   -1002.7036    5152.4833 
    2500    887.69758   -1675.4688   -1626.0142    -1526.265    5162.1168 
    2600    956.20765   -1677.6587   -1624.3873    2603.7411    5143.8141 
    2700    957.65501   -1677.2677   -1623.9157   -2907.9855    5165.3538 
    2800    926.10436   -1675.7796   -1624.1853    816.79715    5155.7066 
    2900    936.30433   -1677.0672   -1624.9046    3446.3346    5142.1902 
    3000    959.65605   -1679.4435     -1625.98   -5440.9236    5169.4476 
    3100     940.8973   -1679.6185      -1627.2    4088.9903    5135.0728 
    3200    894.76105   -1678.2117   -1628.3636    223.96953    5149.3205 
    3300    928.56966   -1680.8198   -1629.0882   -3979.1771    5156.4978 
    3400    907.03238   -1680.0011   -1629.4693    2928.7385    5135.3986 
    3500    915.71606   -1680.6001   -1629.5845   -3432.9996    5154.7156 
    3600    876.08786   -1678.3502   -1629.5423    102.42561     5146.942 
    3700    925.25135    -1680.892   -1629.3452    2843.7342    5134.0002 
    3800    888.50009   -1678.5711   -1629.0717   -4277.6424     5161.095 
    3900    897.96391   -1678.7896    -1628.763    1107.8662    5145.0284 
    4000     859.2726   -1676.2178   -1628.3468    3916.1511    5138.3879 
    4100    889.26921   -1677.4573   -1627.9151   -4337.2891     5159.744 
    4200    934.33665   -1679.5121   -1627.4592   -131.96129    5141.6564 
    4300    909.45348   -1677.4299   -1626.7633     1979.667    5147.4145 
    4400    919.23093   -1676.4978   -1625.2864    87.851007    5158.0822 
    4500    930.44694   -1674.7272    -1622.891    4084.8281    5143.4544 
    4600    930.48151   -1672.9547   -1621.1166   -1091.0449    5166.6731 
    4700     958.6532   -1673.9874   -1620.5798   -4850.8369    5172.4018 
    4800    933.86461   -1673.1945   -1621.1678    8897.9882    5135.4612 
    4900    912.15157   -1673.7828   -1622.9658   -3017.4677    5176.6952 
    5000    964.10194   -1678.8486   -1625.1374   -1068.9376    5152.0674 
    5100    944.96168   -1679.2978   -1626.6529    5861.8682     5124.021 
    5200    883.91901   -1676.8181   -1627.5739    -12042.48    5193.4567 
    5300    951.02605   -1681.3851   -1628.4024    5950.7923    5123.9019 
    5400    884.64347   -1678.1956   -1628.9111    7993.7674    5118.4623 
    5500     868.4427   -1677.4076   -1629.0257   -18258.998    5218.7858 
    5600    905.60444   -1679.7424   -1629.2902    15744.921    5088.6969 
    5700    876.21291   -1678.4688    -1629.654   -3447.4336    5158.3139 
    5800     932.7284   -1681.3681   -1629.4048   -10960.503    5179.7371 
    5900    955.84051   -1681.8766   -1628.6257    12776.048    5092.7053 
    6000    869.69372   -1675.8521   -1627.4005   -6897.3149    5179.0556 
    6100    895.44319   -1675.3831    -1625.497   -2506.7057    5162.5205 
    6200    970.72155   -1677.9269   -1623.8469    7992.1766     5121.842 
    6300    947.16817   -1675.8187   -1623.0509   -7175.7493    5183.0292 
    6400    975.76783   -1677.4163   -1623.0552    2024.2853    5148.9537 
    6500    951.18394   -1676.8426   -1623.8511    3015.0454    5142.2261 
    6600      907.137   -1676.0345   -1625.4969   -6593.9754     5176.168 
    6700    912.79657   -1678.4665   -1627.6136    6891.2744    5124.3042 
    6800    868.94475   -1677.6114   -1629.2015    -1200.117    5157.9325 
    6900      882.372   -1678.9454   -1629.7875   -3209.4226    5156.9549 
    7000    934.11222   -1681.8957   -1629.8552    5016.4664    5121.2656 
    7100    896.02264   -1679.7171   -1629.7987   -6756.4591    5164.5027 
    7200    899.77493    -1679.669   -1629.5415   -76.624669     5144.091 
    7300    909.48605   -1679.6837   -1629.0152     3291.501    5131.7456 
    7400     922.7773   -1679.7312   -1628.3223   -5200.7221      5165.29 
    7500    882.57516   -1676.5337   -1627.3644    2214.1965    5137.2829 
    7600     931.3368   -1678.0129   -1626.1271   -26.563238     5155.545 
    7700    942.32626   -1677.1204   -1624.6223   -5440.2365    5167.3229 
    7800    937.06993     -1675.22   -1623.0147    4875.3599     5139.538 
    7900    968.42542    -1675.681   -1621.7289   -1488.1092    5165.6702 
    8000    942.50101   -1673.5366   -1621.0288   -5327.3824    5183.0575 
    8100    1034.1685   -1678.8733   -1621.2586    8054.7343    5124.2785 
    8200    918.28265   -1674.7088   -1623.5502   -5532.1217    5179.4916 
    8300    971.51897   -1680.8572   -1626.7328   -5817.5513    5165.1506 
    8400    915.62838     -1679.36   -1628.3493    12064.272    5104.5261 
    8500    845.43093   -1676.4822   -1629.3823   -10041.396    5186.4853 
    8600    893.13043   -1679.8535   -1630.0962    1140.2655    5142.2662 
    8700    897.73152   -1680.3578   -1630.3441    10310.814    5108.3001 
    8800    889.07032   -1679.8928   -1630.3617   -11547.578    5191.0649 
    8900    894.14798   -1679.9662   -1630.1522    6411.5032    5123.7873 
    9000    898.66883   -1679.5397   -1629.4739    -85.15869    5142.3845 
    9100    866.29043    -1676.542     -1628.28   -5791.1353    5177.7071 
    9200    943.82875   -1679.2784   -1626.6966    8345.7194    5121.3668 
    9300    908.45924   -1675.8906   -1625.2793   -2800.3826    5165.5114 
    9400    951.03132   -1677.2608   -1624.2777   -1867.8491    5163.1327 
    9500    902.85061   -1674.1608    -1623.862     7977.128       5136.8 
    9600    907.70288   -1674.7905   -1624.2214   -188.64366    5161.9162 
    9700    895.57508   -1675.5694   -1625.6759    1280.8371    5154.9788 
    9800    914.34065   -1679.4916   -1628.5527    190.95542    5145.9125 
    9900    838.34881   -1677.6807   -1630.9753   -1573.0682    5154.3917 
   10000    866.84103   -1680.0543   -1631.7616     3017.329    5132.8981 
Loop time of 5.25492 on 2 procs for 10000 steps with 432 atoms

Performance: 328.835 ns/day, 0.073 hours/ns, 1902.979 timesteps/s
99.5% CPU use with 2 MPI tasks x 1 OpenMP threads

MPI task timing breakdown:
Section |  min time  |  avg time  |  max time  |%varavg| %total
---------------------------------------------------------------
Pair    | 4.6273     | 4.6851     | 4.7428     |   2.7 | 89.16
Neigh   | 0.00041199 | 0.00043249 | 0.000453   |   0.0 |  0.01
Comm    | 0.30687    | 0.36234    | 0.41782    |   9.2 |  6.90
Output  | 0.029557   | 0.029743   | 0.029929   |   0.1 |  0.57
Modify  | 0.13948    | 0.14056    | 0.14164    |   0.3 |  2.67
Other   |            | 0.03676    |            |       |  0.70

Nlocal:    216 ave 225 max 207 min
Histogram: 1 0 0 0 0 0 0 0 0 1
Nghost:    1931.5 ave 1950 max 1913 min
Histogram: 1 0 0 0 0 0 0 0 0 1
Neighs:    15066 ave 15663 max 14469 min
Histogram: 1 0 0 0 0 0 0 0 0 1

Total # of neighbors = 30132
Ave neighs/atom = 69.75
Neighbor list builds = 1
Dangerous builds = 0
Setting up Verlet run ...
  Unit style    : metal
  Current step  : 10000
  Time step     : 0.002
Per MPI rank memory allocation (min/avg/max) = 4.309 | 4.309 | 4.309 Mbytes
Step Temp PotEng TotEng Press Volume v_my_lx f_1 f_2 f_3 f_4 f_5 
   10000    866.84103   -1680.0543   -1631.7616     3017.329    5132.8981    2.8711551            0            0            0            0            0 
   10100    864.34667    -1679.969   -1631.8152   -341.33103     5149.969    2.8743346    5146.5246    873.99617   -716.81257   -1631.8293    2.8736929 
   10200    874.09547   -1680.1146   -1631.4177   -1461.2865    5150.1229    2.8743632    5143.0846    875.21707     219.2495   -1631.7416    2.8730525 
   10300    907.21463   -1681.1249    -1630.583    3534.0015     5133.684    2.8713017    5144.3739    873.97018   -41.554088   -1631.5084    2.8732924 
   10400    871.89046   -1677.9373   -1629.3633   -2902.3488    5156.8592    2.8756158    5145.7211    876.27691   -183.97285   -1631.1281    2.8735431 
   10500    973.72228   -1682.1823   -1627.9351   -2506.6485    5150.5358      2.87444    5145.2394    881.60287    53.696047    -1630.633    2.8734535 
   10600    964.66027   -1680.4438   -1626.7015    705.76179    5142.7322    2.8729876    5146.5221     885.6161   -138.40213   -1630.0786    2.8736923 
   10700    902.47983   -1676.1018   -1625.8237   -2620.2726    5165.6386    2.8772468    5147.2333     889.6494   -98.611705   -1629.5293    2.8738246 
   10800    925.39605   -1676.9127   -1625.3579    2155.0028    5149.9813    2.8743368     5147.505     893.3624    100.34033   -1629.0316    2.8738751 
   10900    978.40909   -1679.8083   -1625.3001    1476.3278    5140.5896    2.8725885    5148.9677    896.58736    -163.2131   -1628.6155    2.8741471 
   11000    910.63955   -1676.4907   -1625.7579   -4603.9755    5170.0506    2.8780657    5149.0518    899.55542   -55.597321   -1628.3016    2.8741626 
   11100     927.7705   -1678.7027   -1627.0155     2176.781    5141.5479     2.872767    5148.8665    901.08163    63.951614   -1628.1193    2.8741281 
   11200    871.33858   -1678.2963    -1629.753     5313.827     5132.139    2.8710136    5149.3813    900.75255   -130.62099   -1628.1328    2.8742238 
   11300    870.42614   -1680.9303   -1632.4378   -6104.9084    5160.1358    2.8762248    5148.5863    898.99366   -37.754446   -1628.3734    2.8740758 
   11400    840.06523   -1680.1078   -1633.3069    4170.7915    5127.9439    2.8702311    5147.7852    896.57414    38.049174   -1628.7032    2.8739266 
   11500    818.94026   -1678.8098   -1633.1857    2251.8091    5139.4721    2.8723804    5147.8792    893.46193   -101.32852   -1629.0102    2.8739441 
   11600    832.58471   -1678.8704   -1632.4862   -3334.3233    5156.6474    2.8755765    5147.1704    891.66055    5.1724724   -1629.2509    2.8738121 
   11700    871.98697   -1679.8457   -1631.2663    4150.9666     5124.577    2.8696028    5146.9471    890.42637   -9.1282723   -1629.4066    2.8737705 
   11800    904.64712    -1680.209   -1629.8101   -3341.6075    5160.8274    2.8763532    5147.2156    889.78146   -99.059649   -1629.4698    2.8738204 
   11900    849.73404   -1675.7769   -1628.4373    379.29674    5153.2098    2.8749373    5146.7386    889.67123    73.178294   -1629.4485    2.8737316 
   12000    884.58616   -1676.5471   -1627.2658    7158.3632    5131.1098    2.8708217    5147.4283    890.58198   -61.865417    -1629.366    2.8738598 
   12100    923.37172   -1678.0135   -1626.5715   -6586.3964    5174.0657    2.8788106    5147.6822    891.59846   -61.938912   -1629.2478     2.873907 
   12200      894.504   -1676.1202   -1626.2864    1465.3837    5147.0799     2.873797    5147.4621    892.56472       57.814    -1629.118     2.873866 
   12300    906.97139   -1676.7621   -1626.2337    6270.9274    5134.6742    2.8714862    5148.1218     893.5365   -72.908415   -1628.9923    2.8739886 
   12400    932.14453   -1678.4805   -1626.5497    -8031.667    5179.4239     2.879804    5148.1725    894.61423   -37.286835   -1628.8835     2.873998 
   12500    897.80795   -1677.2575   -1627.2396     4123.605    5136.0695    2.8717463    5147.9465    895.21784    53.326721   -1628.8029    2.8739558 
   12600    897.78954   -1678.4702   -1628.4534    3272.3108    5138.9884    2.8722902    5148.5994    895.20446   -98.854063   -1628.7636    2.8740772 
   12700    886.63745   -1680.1176   -1630.7221   -8960.5686     5175.644    2.8791033    5148.0977    895.07854    21.731757   -1628.7906    2.8739837 
   12800    883.01951   -1682.4077   -1633.2137    7843.7623    5108.4492    2.8665893    5147.9207    894.13254     16.77754   -1628.9079    2.8739504 
   12900    852.39798   -1681.9737   -1634.4856   -2000.4895    5143.0046    2.8730383    5148.0654    892.51107   -107.67713   -1629.0829    2.8739773 
   13000    876.61523   -1683.2698   -1634.4326   -9735.5114    5168.4868    2.8777755    5147.2771    891.29545    39.171972   -1629.2637    2.8738303 
   13100    847.03309   -1680.8389   -1633.6498    10373.829    5104.7342    2.8658942    5147.2001    889.85836  0.045004069     -1629.42    2.8738158 
   13200    895.59852   -1682.4291   -1632.5343   -3604.5082    5156.0419    2.8754639    5147.1904    889.03567   -66.653448   -1629.5361    2.8738139 
   13300    892.06832   -1680.8724   -1631.1743    -2059.015    5147.3689    2.8738507    5146.7505    888.41625    26.405751   -1629.6055    2.8737321 
   13400    882.95362   -1679.1452   -1629.9549      4726.82    5132.6299    2.8711051    5146.9193    888.22222   -29.020207   -1629.6328    2.8737635 
   13500    956.59877   -1682.3487   -1629.0555   -4219.3202    5160.5284    2.8762977    5146.9001    888.31875   -25.283095   -1629.6288      2.87376 
   13600    908.65202    -1678.996    -1628.374    432.02186    5143.9383    2.8732121    5146.8256    888.47247    6.7209636   -1629.6028    2.8737462 
   13700    893.34034   -1677.5832   -1627.8143    1562.8851    5140.6817    2.8726057    5146.9928    888.86226   -36.884021   -1629.5614    2.8737774 
   13800    860.38675   -1675.3274   -1627.3943   -1710.2622    5159.8077    2.8761638     5146.869    889.27276     1.077038   -1629.5094    2.8737544 
   13900    913.37225   -1677.9994   -1627.1144    4026.6182    5134.4406    2.8714427    5146.9264    889.68454   -1.9930976   -1629.4515    2.8737652 
   14000    849.31705   -1674.3378   -1627.0214   -20.502032    5151.9671    2.8747062    5147.1389    890.32049   -41.630547   -1629.3913    2.8738047 
   14100    938.07722   -1679.3129   -1627.0515   -3332.7055    5158.4533    2.8759121    5147.0458     890.8162    2.3339337   -1629.3331    2.8737875 
   14200      977.304   -1681.8975   -1627.4508     3231.932    5134.1549    2.8713894    5147.1616    891.27902   -11.789292   -1629.2827     2.873809 
   14300    883.96957   -1677.9162   -1628.6692     -2104.65    5153.9682    2.8750784    5147.3038    891.53378   -42.095695   -1629.2526    2.8738355 
   14400    846.98638   -1677.6782   -1630.4917   -1507.8356    5149.5901    2.8742641    5147.1148    891.57436  -0.54992292   -1629.2594    2.8738004 
   14500    878.22734   -1681.0266   -1632.0996    3514.1481    5130.2846    2.8706677    5147.0703    891.13145   -14.303673   -1629.3061    2.8737922 
   14600    852.71826   -1680.6054   -1633.0995   -1641.9583    5146.0045    2.8735968    5146.9977    890.61955   -31.530753   -1629.3792    2.8737787 
   14700    824.18593   -1679.2675   -1633.3512   -841.03124    5145.3448     2.873474    5146.7479    889.97136   -2.1145672   -1629.4622    2.8737322 
   14800    871.69553   -1681.4382   -1632.8751    4139.5112     5127.273    2.8701059    5146.6412    889.37069   -15.520031   -1629.5397    2.8737124 
   14900    892.40323   -1681.3644   -1631.6476   -3474.6065    5146.4995    2.8736889    5146.5658    888.90047   -34.443052   -1629.5965    2.8736984 
   15000    886.51031   -1679.1828   -1629.7943   -2872.6922    5154.5896    2.8751939    5146.3027    888.73219    13.606211   -1629.6191    2.8736494 
   15100    933.93658   -1679.9824   -1627.9518     5472.623    5126.1834    2.8699026    5146.5359     888.9791   -34.917081   -1629.6034    2.8736928 
   15200    913.17324   -1677.8103   -1626.9364   -8979.6069    5182.4542    2.8803655    5146.6145    889.34121   -35.364776   -1629.5609    2.8737074 
   15300     896.0544   -1676.5413   -1626.6211    2376.7257     5143.307    2.8730946    5146.5051    889.84027    29.414592   -1629.5072     2.873687 
   15400    948.33015   -1679.4104   -1626.5779    6741.3564    5132.2656    2.8710372    5146.9204    890.26298   -48.022291   -1629.4526    2.8737641 
   15500    882.39247   -1675.9066   -1626.7475   -9725.0343    5188.6849    2.8815194    5146.9592     890.7026    -24.64764   -1629.4018    2.8737713 
   15600    977.55489   -1681.7222   -1627.2616    1772.7647    5137.9818    2.8721027    5146.8709    891.12385    30.974501   -1629.3587    2.8737547 
   15700    907.84975   -1678.4244   -1627.8471    6169.4971    5132.5655    2.8710931     5147.293    891.35963    -61.04319   -1629.3263    2.8738332 
   15800    958.58118   -1681.9019   -1628.4983   -12948.116    5191.7206    2.8820812    5147.1025    891.59199    1.2808253   -1629.3063    2.8737976 
   15900    850.53833   -1676.8828   -1629.4984    10660.571    5112.0196    2.8672569    5147.1292    891.50215    12.443668   -1629.3012    2.8738024 
   16000    844.00369   -1678.1196   -1631.0992   -887.47805    5153.9347    2.8750721    5147.3701    891.42184   -53.449809   -1629.3169    2.8738471 
   16100    896.31311   -1683.0836   -1633.1489   -5195.4194    5161.5823    2.8764935    5147.0956    891.14541    10.678454   -1629.3621     2.873796 
   16200    851.66008   -1682.3911   -1634.9441    7090.7323    5113.6717    2.8675658     5147.087    890.44694   -7.9747301   -1629.4391    2.8737944 
   16300    794.10676   -1680.0598   -1635.8192   -4035.7678    5156.7869    2.8756024    5147.0922    889.66389   -34.590406   -1629.5353    2.8737953 
   16400    849.91735   -1682.9204   -1635.5706   -2441.5716    5146.1832    2.8736301    5146.7937    888.92437    14.040143   -1629.6326    2.8737397 
   16500    848.30865   -1681.6369   -1634.3767    6937.2907    5117.1859    2.8682225    5146.8055    888.29796   -21.044402   -1629.7158     2.873742 
   16600    851.86991   -1680.2143   -1632.7557   -3115.5389    5155.1127    2.8752912     5146.706    887.80881   -22.462594   -1629.7743    2.8737234 
   16700     900.3805   -1681.6417   -1631.4805   -1849.9989    5142.7007    2.8729817    5146.5367    887.62524    4.8491336   -1629.8082     2.873692 
   16800    879.81057   -1679.7285   -1630.7133     1774.726    5135.6911    2.8716758    5146.5588    887.46808   -15.701054   -1629.8266    2.8736961 
   16900     869.1093   -1678.5018   -1630.0828   -506.17103    5151.3637     2.874594    5146.5145    887.37355   -11.728155   -1629.8349    2.8736879 
   17000    925.45814    -1680.883   -1629.3247    744.81966    5140.1914    2.8725144    5146.4564    887.36556      -3.8306   -1629.8331    2.8736772 
   17100    898.65762   -1678.5137   -1628.4485    568.49348    5148.2394    2.8740127     5146.515     887.4185    -16.09217   -1629.8197    2.8736881 
   17200    896.58435    -1677.428   -1627.4782    -1232.124     5152.416    2.8747897    5146.5086    887.64006   -6.3213191   -1629.7939     2.873687 
   17300    894.06951     -1676.43   -1626.6204   -245.89579    5152.6811     2.874839    5146.5537    887.99162   -6.1934786   -1629.7561    2.8736954 
   17400    903.40263    -1676.275   -1625.9454    1763.4801     5149.044    2.8741624    5146.6428    888.43736   -11.954588   -1629.7088     2.873712 
   17500    907.00173   -1676.0652   -1625.5351   -168.22711    5156.4013    2.8755307     5146.744    888.86105   -16.355654   -1629.6557    2.8737309 
   17600     917.3355   -1676.5977   -1625.4919   -2226.8672     5160.362    2.8762668    5146.8094    889.33753   -6.7174152   -1629.6007    2.8737431 
   17700    904.56034   -1676.3641     -1625.97    3135.1887    5139.7536    2.8724328    5146.8982    889.78348   -12.136145   -1629.5497    2.8737597 
   17800    883.03548   -1676.5879    -1627.393   -1051.9582    5155.5315     2.875369    5146.9614    890.09714   -18.212525   -1629.5118    2.8737715 
   17900    902.48244   -1679.8799   -1629.6016    166.04674    5142.4283     2.872931    5146.9322    890.26259   -10.207299   -1629.4988    2.8737661 
   18000    927.73202   -1683.0723   -1631.3873   -695.33245    5142.8991    2.8730187    5146.9402    890.12052   -18.024925   -1629.5121    2.8737676 
   18100    845.39025     -1679.39   -1632.2923   -319.15966    5146.4929    2.8736877    5146.8521    889.81198   -8.8063792   -1629.5418    2.8737512 
   18200    866.22617   -1680.7177   -1632.4592     2714.307    5134.4925    2.8714524    5146.7731    889.50636   -6.3942612    -1629.577    2.8737366 
   18300    880.79244   -1681.1221   -1632.0522   -1503.2615    5146.7341    2.8737326    5146.7439    889.25168   -14.040251   -1629.6098    2.8737312 
   18400    893.73341   -1680.8703   -1631.0794    28.307281     5142.468    2.8729384    5146.6705    889.10041   -5.8905313   -1629.6334    2.8737175 
   18500    861.27417   -1677.6626   -1629.6801    1018.1215    5139.2748    2.8723436    5146.6822    888.93267   -15.618085   -1629.6424    2.8737198 
   18600    893.02806   -1677.8436    -1628.092   -3014.4966    5155.7867    2.8754165    5146.6947    889.01399   -19.537793   -1629.6334    2.8737221 
   18700    878.59485   -1675.8825    -1626.935   -1836.4029    5156.1245    2.8754793    5146.6546    889.23777   -2.7795176   -1629.6083    2.8737147 
   18800    944.35759   -1679.0446   -1626.4334    2653.7461    5135.0293    2.8715524    5146.7261    889.45664   -13.994203   -1629.5745     2.873728 
   18900    902.70205    -1676.703   -1626.4125      -5697.4    5170.1233    2.8780792    5146.8273    889.81229   -24.805585   -1629.5388    2.8737468 
   19000    935.15782   -1678.7532   -1626.6545   -2520.7121    5155.2654    2.8753196    5146.7693    890.11093    7.6754651   -1629.5051     2.873736 
   19100    931.62578   -1678.8115   -1626.9096    5835.4106     5126.637    2.8699872    5146.9309    890.27721   -22.913707   -1629.4751    2.8737661 
   19200    937.90031   -1679.6287   -1627.3772   -10148.717      5178.13    2.8795642    5146.9488    890.49577   -20.104227   -1629.4498    2.8737694 
   19300    910.59748   -1678.7622   -1628.0318    2442.7264    5138.6756     2.872232     5146.872    890.71851    11.255438   -1629.4307    2.8737551 
   19400    912.09553   -1679.5007   -1628.6868    5187.7832    5130.1268    2.8706383    5147.0294    890.71053   -27.959869   -1629.4194    2.8737843 
   19500    859.76601   -1677.3713   -1629.4728   -6122.9364    5174.8686    2.8789595    5146.9949    890.74822     -12.5876   -1629.4157    2.8737779 
   19600    899.33373   -1680.6043   -1630.5014    4088.4937    5124.3122    2.8695534    5146.9297    890.76819 -0.00023389432   -1629.4216    2.8737657 
   19700    868.15906   -1680.2926   -1631.9265   -226.59566    5147.7106    2.8739143    5147.0071    890.56788   -28.098935   -1629.4399    2.8737802 
   19800     859.6604   -1681.4932   -1633.6006   -2367.6711     5151.622     2.874642    5146.8473    890.30161   0.17514368   -1629.4737    2.8737504 
   19900    831.23056   -1681.3216   -1635.0128    7568.2443    5111.1266      2.86709    5146.8222    889.92039   -17.439583   -1629.5232    2.8737457 
Finished 900 K - next row contains averaged properties
   20000    829.64109   -1682.0035   -1635.7833   -6986.6042    5160.3391    2.8762625    5146.7128    889.46243    -21.07926   -1629.5827    2.8737253 
Loop time of 6.11581 on 2 procs for 10000 steps with 432 atoms

Performance: 282.547 ns/day, 0.085 hours/ns, 1635.107 timesteps/s
99.6% CPU use with 2 MPI tasks x 1 OpenMP threads

MPI task timing breakdown:
Section |  min time  |  avg time  |  max time  |%varavg| %total
---------------------------------------------------------------
Pair    | 5.3444     | 5.3664     | 5.3885     |   1.0 | 87.75
Neigh   | 0.0008533  | 0.00087106 | 0.00088882 |   0.0 |  0.01
Comm    | 0.38525    | 0.40846    | 0.43168    |   3.6 |  6.68
Output  | 0.030729   | 0.030961   | 0.031193   |   0.1 |  0.51
Modify  | 0.26305    | 0.26464    | 0.26624    |   0.3 |  4.33
Other   |            | 0.04442    |            |       |  0.73

Nlocal:    216 ave 223 max 209 min
Histogram: 1 0 0 0 0 0 0 0 0 1
Nghost:    1880 ave 1895 max 1865 min
Histogram: 1 0 0 0 0 0 0 0 0 1
Neighs:    14965.5 ave 15509 max 14422 min
Histogram: 1 0 0 0 0 0 0 0 0 1

Total # of neighbors = 29931
Ave neighs/atom = 69.2847
Neighbor list builds = 2
Dangerous builds = 0
System init for write_data ...
Setting up Verlet run ...
  Unit style    : metal
  Current step  : 0
  Time step     : 0.002
Per MPI rank memory allocation (min/avg/max) = 4.309 | 4.309 | 4.309 Mbytes
Step Temp PotEng TotEng Press Volume 
       0         1200   -1682.0035   -1615.1502   -2715.8404    5160.3391 
     100    1010.6118   -1670.0758   -1613.7735   -3924.0237    5185.0898 
     200    1050.4671   -1668.8759   -1610.3532    2922.8587    5168.5508 
     300    1074.6515   -1667.4357   -1607.5656   -584.83129    5187.9217 
     400    1070.3085   -1664.5491    -1604.921    622.10175     5189.955 
     500    1151.1794   -1665.9675    -1601.834   -384.40455    5191.6913 
     600    1142.2614   -1662.3429   -1598.7062   -1552.7673    5210.2571 
     700    1172.8374   -1661.0756   -1595.7355    2607.8212    5186.9104 
     800    1146.1787   -1656.9305   -1593.0756   -8552.8184    5247.7247 
     900    1215.7023   -1658.2195   -1590.4914    9223.1457    5177.3362 
    1000    1195.8011   -1655.0666   -1588.4472   -11328.245    5272.3119 
    1100    1204.3475   -1653.8045    -1586.709    16175.647    5161.2238 
    1200    1212.9036   -1653.3436   -1585.7713   -15459.866    5292.9089 
    1300    1277.4752    -1656.536   -1585.3664    15533.967    5162.4887 
    1400    1140.8576   -1649.5231   -1585.9646   -11605.874    5283.5443 
    1500    1246.7575   -1656.7244   -1587.2662    12012.858    5175.4444 
    1600    1234.6783   -1658.0548   -1589.2695   -8932.6985    5252.8492 
    1700    1218.9511   -1659.2484   -1591.3392    1560.3992    5198.4871 
    1800    1204.6653   -1660.2126   -1593.0994    755.59703    5208.2781 
    1900    1211.0907   -1661.7838   -1594.3125   -5540.8859    5229.3835 
    2000    1157.4043   -1659.4257   -1594.9454    8658.6207    5177.8657 
    2100    1104.3421   -1656.6809   -1595.1568   -5529.1388    5240.3196 
    2200    1188.8886   -1660.8287   -1594.5944    10775.098    5170.2407 
    2300    1222.9882   -1661.3699   -1593.2359    -10306.52     5247.668 
    2400    1184.4739   -1656.2034    -1590.215    11683.719    5185.1536 
    2500    1177.8953   -1652.2653   -1586.6435   -5082.5667    5243.6251 
    2600     1221.246   -1652.7992   -1584.7622     2364.008    5222.1697 
    2700    1264.6125   -1654.8158   -1584.3628     -1891.48    5228.0526 
[...]
    7300    1199.2109   -1652.9882   -1586.1788   -1704.5172    5236.3758 
    7400     1282.298   -1655.3232   -1583.8849    1958.5627    5226.2577 
    7500    1323.7887    -1655.779   -1582.0292   -1030.9436    5237.0448 
    7600    1266.9287   -1651.7017   -1581.1197   -363.87829    5236.0679 
    7700    1286.2858   -1653.3232   -1581.6628   -2423.5107    5230.5869 
    7800    1179.8254   -1649.9762   -1584.2468    702.01572    5236.8251 
    7900    1170.7717   -1653.5046   -1588.2796    4245.4623    5211.7893 
    8000    1191.0101   -1657.1306   -1590.7781   -2347.3133    5225.1603 
    8100    1170.8303   -1657.0432   -1591.8149      1358.67    5207.8199 
    8200    1220.6553   -1660.4033   -1592.3992   -1657.2759    5222.8602 
    8300     1201.391   -1659.6292   -1592.6984     5797.031    5193.0616 
    8400    1158.7945   -1657.3408    -1592.783   -6987.2744    5244.0363 
    8500    1213.5787    -1660.148   -1592.5382    7706.5562    5180.5946 
    8600    1181.5561   -1657.7829   -1591.9571   -9166.7012    5250.3322 
    8700    1187.0137   -1656.8728   -1590.7429    8332.3741    5178.3699 
    8800    1196.8021   -1655.7659   -1589.0907   -7778.3694    5252.5683 
    8900    1261.8581   -1657.2712   -1586.9716    4457.8952    5198.9111 
    9000    1257.1679     -1655.23   -1585.1918    -5237.029    5244.2456 
    9100    1171.5328   -1649.2386   -1583.9712    5554.9674    5222.7644 
    9200    1270.6155   -1654.2055   -1583.4181   -2355.4016    5231.4525 
    9300    1229.3176   -1652.2454   -1583.7587   -3225.2912    5240.1103 
    9400    1290.1833   -1657.7586   -1585.8811    4298.2148    5205.5646 
    9500    1189.8116   -1656.3904   -1590.1047   -8025.2722    5239.8798 
    9600    1177.8224   -1658.5319   -1592.9141    8250.6359    5183.8924 
    9700    1182.0309   -1659.9002    -1594.048   -8212.5454    5240.4562 
    9800    1220.3632   -1662.3526   -1594.3648    6626.2047    5177.0845 
    9900    1126.2091   -1656.9657   -1594.2233   -4152.8351    5229.9351 
   10000    1161.2458   -1658.1673    -1593.473    3446.9801    5194.5985 
Loop time of 5.41545 on 2 procs for 10000 steps with 432 atoms

Performance: 319.087 ns/day, 0.075 hours/ns, 1846.567 timesteps/s
99.7% CPU use with 2 MPI tasks x 1 OpenMP threads

MPI task timing breakdown:
Section |  min time  |  avg time  |  max time  |%varavg| %total
---------------------------------------------------------------
Pair    | 4.7798     | 4.7968     | 4.8139     |   0.8 | 88.58
Neigh   | 0.068792   | 0.07009    | 0.071387   |   0.5 |  1.29
Comm    | 0.32743    | 0.344      | 0.36057    |   2.8 |  6.35
Output  | 0.02998    | 0.030179   | 0.030379   |   0.1 |  0.56
Modify  | 0.1389     | 0.14029    | 0.14168    |   0.4 |  2.59
Other   |            | 0.03405    |            |       |  0.63

Nlocal:    216 ave 219 max 213 min
Histogram: 1 0 0 0 0 0 0 0 0 1
Nghost:    1842 ave 1849 max 1835 min
Histogram: 1 0 0 0 0 0 0 0 0 1
Neighs:    14879 ave 15054 max 14704 min
Histogram: 1 0 0 0 0 0 0 0 0 1

Total # of neighbors = 29758
Ave neighs/atom = 68.8843
Neighbor list builds = 159
Dangerous builds = 0
Setting up Verlet run ...
  Unit style    : metal
  Current step  : 10000
  Time step     : 0.002
Per MPI rank memory allocation (min/avg/max) = 4.309 | 4.309 | 4.309 Mbytes
Step Temp PotEng TotEng Press Volume v_my_lx f_1 f_2 f_3 f_4 f_5 
   10000    1161.2458   -1658.1673    -1593.473    3446.9801    5194.5985    2.8826137            0            0            0            0            0 
   10100    1175.4745   -1657.7296   -1592.2426   -3715.8256    5220.7794    2.8874483    5217.8048    1184.4603   -1955.3473   -1592.8819    2.8868987 
   10200      1163.33   -1655.3838   -1590.5734    917.01539    5217.7908    2.8868973    5212.6152    1191.8134    33.470794   -1592.1557    2.8859413 
   10300    1238.1703   -1657.6853   -1588.7055   -414.82768    5212.9235    2.8859993    5216.7321    1196.0523   -691.44726   -1591.3155    2.8867008 
   10400    1206.8282   -1654.2938     -1587.06   -2717.8594    5237.9636    2.8906129    5216.4885    1204.5189   -4.8900412   -1590.4428    2.8866558 
   10500    1206.4983   -1653.0419   -1585.8266    1699.6213    5218.2918    2.8869897    5219.9081    1207.0658   -271.35798   -1589.6364     2.887286 
   10600    1268.9465   -1655.9291   -1585.2347   -3349.4749    5234.4521    2.8899668    5219.8555    1213.8657   -44.850216    -1588.941    2.8872765 
   10700    1255.8236    -1655.312   -1585.3486     1046.341     5215.822    2.8865341    5221.5165    1217.9958   -260.09542   -1588.4095    2.8875826 
   10800    1240.1479   -1655.9337   -1586.8436    -3472.302    5241.1845    2.8912053    5221.5861    1220.6668   -75.030943    -1588.101    2.8875955 
   10900    1228.5271   -1659.1452   -1590.7025    3899.0328    5195.5026    2.8827809    5222.0709    1220.6475   -243.01902   -1588.1596    2.8876847 
   11000    1193.7981   -1660.7589   -1594.2511   -6808.1012    5234.6662    2.8900062    5220.4936    1216.8461   -51.357445   -1588.6139    2.8873936 
   11100    1225.6413   -1664.0662   -1595.7844    5363.6206    5177.3584    2.8794211    5219.4348    1213.2784   -120.99394   -1589.2114    2.8871979 
   11200    1134.7257   -1659.5455   -1596.3286   -6912.0793    5237.0915    2.8904525    5218.5974    1208.6441   -150.87579   -1589.7918    2.8870431 
   11300    1179.0746    -1661.749   -1596.0614    5853.9966    5182.2422    2.8803262      5217.04    1204.8186    24.267167   -1590.2917    2.8867553 
   11400     1143.351   -1658.8302   -1595.1328   -5182.1259    5232.7696    2.8896571    5217.4717    1201.5099   -227.31798   -1590.6753    2.8868348 
   11500    1238.9348   -1662.3987   -1593.3763   -429.72474    5201.7802    2.8839415    5215.9856     1199.964     79.94295   -1590.9153    2.8865604 
   11600    1201.4501   -1658.1844   -1591.2503   -443.30947    5214.2643    2.8862468    5216.7714    1198.7012    -204.3217    -1591.001    2.8867054 
   11700    1214.0013   -1657.0012   -1589.3678   -5421.2764    5231.4409    2.8894125     5215.991    1199.2376    33.809119   -1590.9553    2.8865615 
   11800    1222.1804   -1656.0975   -1588.0084    6045.6842    5199.5413    2.8835277    5216.7399    1200.4371   -129.00083   -1590.8252    2.8866996 
   11900    1287.2943    -1659.048   -1587.3314   -9455.4277    5257.5057    2.8942033    5216.8114    1201.3868   -23.548571   -1590.6578    2.8867127 
   12000    1200.2829   -1654.0383   -1587.1692    11415.586     5185.107    2.8808569    5217.4342    1202.6901   -79.803356   -1590.4876    2.8868273 
   12100    1203.0759   -1654.6113   -1587.5866   -10467.158    5266.7464    2.8958979    5217.6992    1203.7437   -57.410358   -1590.3407    2.8868759 
   12200    1238.4919   -1657.2574   -1588.2596    11744.803    5172.6457    2.8785472    5217.8004    1204.2899   -20.885423   -1590.2328    2.8868941 
   12300    1148.6388   -1653.5448   -1589.5528   -8227.1329    5260.2119    2.8946997    5218.0983    1204.9387   -104.49582    -1590.176    2.8869487 
   12400    1202.9476   -1658.5302   -1591.5127    12815.852    5169.0688    2.8778835    5217.5761    1205.0876     14.54646   -1590.1889     2.886852 
   12500    1113.2654   -1656.9975   -1594.9762   -9182.7979    5249.1554    2.8926702    5218.0865    1203.5743   -173.35983   -1590.3089    2.8869458 
   12600    1168.6218   -1663.5431   -1598.4379    9099.7728    5165.3089    2.8771856    5216.4337    1201.8301    138.74411   -1590.5585    2.8866398 
   12700    1137.6898   -1663.0412   -1599.6592   -8283.6317    5234.1079    2.8899035    5217.5211    1198.7255    -256.3526   -1590.8759    2.8868398 
   12800    1181.3621   -1665.2643   -1599.4493    2814.4432    5179.6347    2.8798431    5214.9299    1197.1215    251.35392   -1591.1771    2.8863594 
   12900    1075.1193   -1658.2336   -1598.3375    3763.7345    5201.2494    2.8838434    5216.5853    1193.9942   -276.78954   -1591.4334    2.8866636 
   13000    1148.6368   -1660.4611   -1596.4693   -7782.2258    5229.4276    2.8890418    5214.4023    1193.2728    201.48882   -1591.6211    2.8862592 
   13100    1195.4944   -1660.9894    -1594.387    9331.7248    5173.5042    2.8787064     5215.529    1191.7137    -151.2457   -1591.7391    2.8864666 
   13200    1109.9497   -1654.3237   -1592.4872   -7850.9135    5252.4309    2.8932717    5214.4727    1191.7578    99.304631   -1591.7885    2.8862713 
   13300    1293.1323   -1662.8791   -1590.8372    6971.9497    5173.2714    2.8786633    5215.0403    1191.5927    -62.23361   -1591.7845     2.886376 
   13400    1194.0326   -1656.1062   -1589.5853   -9822.0348    5257.5231    2.8942065     5214.673    1191.9448    41.552913   -1591.7381    2.8863082 
   13500    1227.5454   -1657.0185   -1588.6306    10342.533    5184.7048    2.8807824    5215.0618    1192.4605   -6.0201067   -1591.6631      2.88638 
   13600    1246.0103   -1657.5099   -1588.0933   -8436.6046    5253.8376      2.89353     5215.243    1193.0173   -1.2189931   -1591.5716    2.8864136 
   13700    1238.4452   -1656.8824   -1587.8872    9368.2226    5186.0074    2.8810236    5215.1458    1193.8642    39.280671   -1591.4751    2.8863959 
   13800    1232.8435   -1656.7709   -1588.0878   -7668.1408    5246.9212    2.8922597    5215.6223    1194.6556   -44.793146   -1591.3831    2.8864839 
   13900     1258.164   -1658.8824   -1588.7886      3083.43    5204.8588    2.8845103    5215.3435    1195.2695     58.00336   -1591.3059    2.8864326 
   14000    1255.9297   -1660.5258   -1590.5566    -6705.525    5232.1965    2.8895516    5215.9779    1195.0969   -68.802126   -1591.2622    2.8865497 
   14100    1130.5858   -1656.5096   -1593.5234    3443.3513    5206.8131    2.8848713    5215.3696    1195.5079    68.108733   -1591.2779    2.8864376 
   14200    1175.6558   -1661.7714   -1596.2743     3572.214    5196.1781    2.8829058    5215.7107     1194.597   -65.306596   -1591.3657    2.8865007 
   14300    1171.6638   -1662.9299   -1597.6552   -4197.9047    5215.3759    2.8864518    5215.0202    1193.6495    46.556829   -1591.4971    2.8863734 
   14400    1159.3664   -1662.4603   -1597.8707     5633.414    5182.9527    2.8804579    5215.0482    1192.3311   -30.539584   -1591.6413    2.8863787 
   14500    1138.8103   -1660.6179   -1597.1735   -6859.5648    5226.3138    2.8884683    5214.6069    1191.3614    19.291307   -1591.7735    2.8862974 
   14600     1242.182   -1664.7433     -1595.54    4425.0251    5178.5368    2.8796396    5214.4163    1190.4976   0.48452649   -1591.8747    2.8862624 
   14700    1142.8797    -1657.115   -1593.4439   -7513.7889    5239.3596    2.8908697    5214.3104    1190.0614    -4.770794   -1591.9312     2.886243 
   14800    1190.6521   -1657.8245   -1591.4919      6253.85    5193.8775    2.8824803     5214.187    1189.9153    27.000588   -1591.9414    2.8862204 
   14900     1230.489    -1658.825    -1590.273   -6597.2117    5236.4541    2.8903352    5214.4666    1190.0404   -31.753173   -1591.9185    2.8862721 
   15000    1242.5441   -1658.8678   -1589.6443   -461.69857    5210.3347    2.8855215    5214.2788     1190.438    33.802777   -1591.8783    2.8862377 
   15100    1195.0147   -1656.0314   -1589.4558    1384.5909    5218.8515    2.8870929    5214.5371    1190.9202   -22.250111   -1591.8318    2.8862855 
   15200    1263.9906   -1659.9381   -1589.5198   -2238.3429     5219.478    2.8872084    5214.5068     1191.357    11.408683    -1591.786    2.8862801 
   15300    1187.6557   -1656.0258   -1589.8602    60.238048    5218.9657     2.887114    5214.6848    1191.7003   -12.362801   -1591.7462    2.8863132 
   15400    1178.6618   -1655.9933   -1590.3287    -672.0587    5218.0865    2.8869518    5214.6986     1192.047   -1.0526582   -1591.7153    2.8863159 
   15500    1218.0226   -1658.9722   -1591.1148    977.34847    5209.8244    2.8854273    5214.6936    1192.2631   -4.3507532   -1591.6969    2.8863152 
   15600    1189.3026   -1658.6083   -1592.3509   -1886.9744     5212.811    2.8859786    5214.6627    1192.4224   -12.219654   -1591.6966    2.8863097 
   15700    1187.9467   -1660.5143   -1594.3324   -1181.7925    5213.1356    2.8860385    5214.5471    1192.2356     1.882219   -1591.7242    2.8862885 
   15800    1193.2878   -1663.5136   -1597.0342    945.66171    5197.9634    2.8832359    5214.4587    1191.8568   -12.354225   -1591.7923    2.8862724 
   15900    1214.7269   -1667.0455   -1599.3717   -1901.5392    5197.1782    2.8830908    5214.1156    1191.2315  -0.55669408   -1591.9025    2.8862092 
   16000    1154.3598   -1664.6752   -1600.3645    275.75003    5200.3699    2.8836808    5213.9343    1190.1384   -11.971402   -1592.0374    2.8861759 
   16100    1119.9462   -1662.5196   -1600.1261   -359.99258    5202.6406    2.8841005    5213.6722    1189.1888   -4.4249734   -1592.1735    2.8861276 
   16200    1118.4797   -1661.0803   -1598.7686    2768.1778    5193.7226    2.8824516     5213.455    1188.3182   -8.0404525   -1592.2921    2.8860877 
   16300    1145.7306    -1660.431    -1596.601   -2224.5715    5217.0027    2.8867519    5213.3256    1187.6655   -9.9407767   -1592.3783    2.8860639 
   16400    1139.2597   -1658.1562   -1594.6868    3472.2844    5203.7761    2.8843103    5213.2136    1187.2677    7.4467366   -1592.4281    2.8860434 
   16500      1176.68   -1659.1208   -1593.5667   -1309.8261    5217.9341    2.8869237    5213.2875    1187.1664   -16.408391   -1592.4531    2.8860572 
   16600    1177.2282    -1658.424   -1592.8393    851.10889     5210.124    2.8854826    5213.2214    1186.9871   0.86209517   -1592.4643    2.8860451 
   16700    1247.9707   -1661.6661   -1592.1403   -950.14322    5213.3842    2.8860844    5213.2503    1187.2207   -12.007558   -1592.4645    2.8860506 
   16800    1183.0886   -1657.2917   -1591.3805   -2437.3268    5218.5383    2.8870351     5213.241    1187.2479   -6.0844366   -1592.4545     2.886049 
   16900    1262.4415   -1660.9081   -1590.5761   -2084.3466    5219.2404    2.8871646    5213.2984     1187.467   -5.6066835    -1592.433    2.8860597 
   17000    1232.5733   -1658.4369   -1589.7688   -806.79654    5218.0613    2.8869472    5213.3553    1187.7816   -2.2295305   -1592.4006    2.8860703 
   17100    1225.3644   -1657.1752   -1588.9088   -2897.6082    5231.8291     2.889484     5213.509    1187.9471   -7.3140276   -1592.3577    2.8860988 
   17200    1263.9848   -1658.3919   -1587.9739    1012.8502    5213.8611    2.8861724    5213.5715    1188.4778    2.8558353   -1592.3033    2.8861104 
   17300    1223.5608   -1655.3902   -1587.2243   -2199.9153    5236.1008    2.8902702    5213.7536      1189.01    -11.35188   -1592.2387    2.8861441 
   17400    1234.3379   -1655.3167   -1586.5503    4098.5451    5212.6697    2.8859525    5213.8644      1189.56  -0.77079458   -1592.1662    2.8861646 
   17500    1236.8214   -1655.1597    -1586.255   -1958.5142    5236.4209    2.8903291     5214.109    1190.2348   -23.503922   -1592.0886    2.8862098 
   17600    1201.2033   -1653.5229   -1586.6025    3630.6932    5218.0198    2.8869395    5214.1807    1190.8646   0.31043669   -1592.0132    2.8862231 
   17700    1212.8526   -1655.5737   -1588.0043   -650.48826    5230.4901    2.8892375    5214.4231    1191.3392   -27.995494    -1591.951    2.8862679 
   17800    1202.1953    -1657.221   -1590.2453    2565.8553    5210.6248    2.8855751    5214.3704    1191.6355    7.2484043   -1591.9141    2.8862583 
   17900    1157.4464   -1657.0598   -1592.5772   -1014.3772    5215.0233    2.8863868    5214.5548    1191.6489   -37.518094    -1591.908    2.8862924 
   18000    1140.2012    -1657.901   -1594.3792     1805.169    5209.3437    2.8853386    5214.2721    1191.6167    17.395563   -1591.9278    2.8862402 
   18100    1223.7208   -1663.6051   -1595.4302   -840.22369    5200.1781    2.8836454    5214.4593    1191.3203   -47.022423    -1591.965    2.8862748 
   18200    1097.4995   -1656.8989   -1595.7559   -1891.4519    5228.1472     2.888806    5214.0963    1190.9902    26.494067   -1592.0093    2.8862077 
   18300    1143.9303   -1659.0959   -1595.3663    7452.1603    5179.1163     2.879747    5214.3317    1190.5597   -41.987169   -1592.0526    2.8862511 
   18400    1184.9073   -1660.2503   -1594.2378    -10331.54    5248.0792    2.8924725    5214.0317    1190.3189    17.417906   -1592.0861    2.8861957 
   18500    1179.5436    -1657.713   -1591.9993    10680.478    5170.3792    2.8781267    5214.1774    1190.0818   -22.422027   -1592.0999    2.8862225 
   18600    1279.8935   -1660.3812   -1589.0769    -13142.35    5270.8453     2.896649    5214.1227    1190.2965    3.2309777   -1592.0824    2.8862123 
   18700     1267.403   -1657.2448   -1586.6363    12000.569    5179.4424    2.8798074    5214.2542    1190.7229    -2.265764   -1592.0335    2.8862365 
   18800    1215.9986   -1653.5143   -1585.7697   -10495.411    5267.8458    2.8960994     5214.442    1191.0694   -16.950399   -1591.9669    2.8862711 
   18900     1202.894   -1652.8811   -1585.8665    13025.753    5188.2278    2.8814348    5214.4324    1191.7941     15.06614   -1591.8974    2.8862693 
   19000    1223.4738   -1654.7144   -1586.5533   -8239.8056    5256.7175    2.8940586    5214.7735    1192.1948   -35.754752   -1591.8343    2.8863321 
   19100    1207.7398   -1654.8341   -1587.5496    4943.0574    5202.5393    2.8840817    5214.6338    1192.7653    24.953509    -1591.781    2.8863063 
   19200    1254.5596   -1658.7352   -1588.8423   -7013.8809     5242.711    2.8914859    5214.9895    1192.9188   -35.927329   -1591.7417    2.8863719 
   19300    1202.1477   -1657.1696   -1590.1966     1721.658    5204.1471    2.8843788    5214.7939    1193.1935    20.314057   -1591.7174    2.8863358 
   19400    1180.4076   -1657.4055   -1591.6437    667.08345    5215.7665    2.8865239    5214.9743    1193.3344   -28.990664   -1591.7086    2.8863691 
   19500    1162.3933   -1657.6957   -1592.9374   -2590.6049    5221.1527    2.8875172    5214.8535    1193.3259    3.6717455   -1591.7148    2.8863469 
   19600     1160.683   -1658.7061   -1594.0431    3908.1452    5202.0428      2.88399    5214.8652     1193.208   -9.2436172   -1591.7336    2.8863491 
   19700    1169.3728    -1659.987   -1594.8399    1200.8668    5206.9982    2.8849055     5214.775    1193.1193   -9.2461843   -1591.7618    2.8863326 
   19800    1165.6024   -1660.2329   -1595.2959   -1312.7546    5209.4527    2.8853587    5214.7208    1192.8513   -11.604863   -1591.7959    2.8863226 
   19900    1145.1554   -1659.1054   -1595.3075    2209.5256    5202.1268    2.8840055    5214.6032    1192.6805   -4.1922011   -1591.8316     2.886301 
Finished 1200 K - next row contains averaged properties
   20000    1202.8307   -1661.3701   -1594.3591     511.1124    5201.7818    2.8839418    5214.5431    1192.3869    -15.02878    -1591.863      2.88629 
Loop time of 6.16668 on 2 procs for 10000 steps with 432 atoms

Performance: 280.216 ns/day, 0.086 hours/ns, 1621.618 timesteps/s
99.7% CPU use with 2 MPI tasks x 1 OpenMP threads

MPI task timing breakdown:
Section |  min time  |  avg time  |  max time  |%varavg| %total
---------------------------------------------------------------
Pair    | 5.3736     | 5.3776     | 5.3816     |   0.2 | 87.20
Neigh   | 0.064283   | 0.065376   | 0.066468   |   0.4 |  1.06
Comm    | 0.38272    | 0.38642    | 0.39013    |   0.6 |  6.27
Output  | 0.030841   | 0.031087   | 0.031333   |   0.1 |  0.50
Modify  | 0.26404    | 0.2654     | 0.26676    |   0.3 |  4.30
Other   |            | 0.04079    |            |       |  0.66

Nlocal:    216 ave 217 max 215 min
Histogram: 1 0 0 0 0 0 0 0 0 1
Nghost:    1850 ave 1856 max 1844 min
Histogram: 1 0 0 0 0 0 0 0 0 1
Neighs:    14867 ave 14977 max 14757 min
Histogram: 1 0 0 0 0 0 0 0 0 1

Total # of neighbors = 29734
Ave neighs/atom = 68.8287
Neighbor list builds = 148
Dangerous builds = 0
System init for write_data ...
Total wall time: 0:00:44
