LAMMPS (7 Aug 2019)
OMP_NUM_THREADS environment is not set. Defaulting to 1 thread. (../comm.cpp:93)
  using 1 OpenMP thread(s) per MPI task
Reading data file ...
  orthogonal box = (0 0 0) to (17.1318 17.1318 17.1318)
  1 by 2 by 2 MPI processor grid
  reading atoms ...
  432 atoms
  read_data CPU = 0.00194788 secs
432 atoms in group iron
432 atoms in group Fe
Neighbor list info ...
  update every 1 steps, delay 10 steps, check yes
  max neighbors/atom: 2000, page size: 100000
  master list distance cutoff = 7.3
  ghost atom cutoff = 7.3
  binsize = 3.65, bins = 5 5 5
  1 neighbor lists, perpetual/occasional/extra = 1 0 0
  (1) pair eam/fs, perpetual
      attributes: half, newton on
      pair build: half/bin/atomonly/newton
      stencil: half/bin/3d/newton
      bin: standard
Setting up Verlet run ...
  Unit style    : metal
  Current step  : 0
  Time step     : 0.002
Per MPI rank memory allocation (min/avg/max) = 4.268 | 4.268 | 4.268 Mbytes
Step Temp PotEng TotEng Press Volume 
       0          300   -1733.6084    -1716.895    3573.6358    5028.1588 
     100    138.72723   -1724.0425   -1716.3139   -1114.7483    5040.2005 
     200    137.49028   -1723.1497     -1715.49    -615.8975    5040.3484 
     300      165.187   -1723.6312   -1714.4284    -107.5713    5039.7512 
     400    195.42259   -1724.1155   -1713.2283   -1338.9261    5042.4768 
     500    188.69351   -1722.4175   -1711.9052    2451.9959    5036.8762 
     600    200.29655   -1721.6515   -1710.4927    381.76252    5040.6351 
     700    212.89688   -1720.8469   -1708.9862   -3907.1704    5053.2668 
     800    219.27039   -1719.6722   -1707.4564   -2376.5004    5053.6816 
     900    237.40826   -1719.0962   -1705.8699    3567.2236    5039.3322 
    1000    237.51764   -1717.4999   -1704.2675     4727.846    5034.6787 
    1100    271.82258   -1717.9336   -1702.7901    1834.5421    5044.6028 
    1200    299.83956   -1717.9832   -1701.2788   -4812.4065     5064.889 
    1300    268.17473   -1714.8587   -1699.9184   -6546.8212    5075.5836 
    1400    307.38361   -1715.8967    -1698.772   -1096.9354    5058.5783 
    1500    323.51127    -1715.807   -1697.7838    8496.7072    5034.0092 
    1600    273.29437   -1712.3692   -1697.1437    3148.1042    5045.5888 
    1700    355.88319   -1716.6462   -1696.8195   -1990.9432    5060.8049 
    1800    329.16781   -1715.2305   -1696.8922   -3679.4218    5069.2621 
    1900     326.6766   -1715.5634   -1697.3639   -3563.5208    5067.2313 
    2000    322.82975   -1716.0996   -1698.1144    1444.1509    5052.3682 
    2100    283.18086   -1714.7363     -1698.96    3323.6552    5046.0786 
    2200    331.24953   -1718.2079   -1699.7536   -619.51878     5056.449 
    2300    304.73821   -1717.3642   -1700.3869    -4130.358    5066.0598 
    2400    271.62331   -1715.9861   -1700.8536   -1637.5225    5059.5796 
    2500    258.67281   -1715.5038   -1701.0928    1605.5219    5049.8111 
    2600    267.17854   -1715.9193   -1701.0345    5461.9998    5038.3693 
    2700    319.01441    -1718.526   -1700.7533    5062.6171    5038.7708 
    2800    295.90904   -1716.7349   -1700.2495   -4601.2049    5066.8663 
    2900    282.82748   -1715.3108   -1699.5542   -8940.8759    5081.8242 
    3000     308.9125   -1716.1598     -1698.95   -2664.3769    5066.0472 
    3100    309.10938   -1715.5778    -1698.357    4733.0685    5040.6493 
    3200    313.45893   -1715.3224   -1697.8592    10571.921    5023.2065 
    3300    316.83662   -1715.4215   -1697.7702    4210.4776    5041.5338 
    3400    318.66257   -1715.4842   -1697.7312   -6616.1502    5076.1714 
    3500    305.88186   -1715.0521    -1698.011   -7590.6896    5079.8938 
    3600     317.3486   -1716.1779   -1698.4981   -1012.2784    5058.7931 
    3700    297.76021   -1715.6433   -1699.0548    4637.4497    5041.1036 
    3800    283.75976   -1715.4346    -1699.626    2727.6753    5040.8436 
    3900    298.02872   -1716.7218   -1700.1183    577.28853    5052.8242 
    4000    271.19986   -1715.5626   -1700.4537   -3809.1824    5067.1595 
    4100    301.69001   -1717.4298   -1700.6223   -2358.4261    5060.9357 
    4200    294.44951   -1717.0029   -1700.5988    1358.5028    5048.6634 
    4300     290.9558   -1716.5822   -1700.3728    1808.7674    5045.6633 
    4400    294.78184   -1716.4014   -1699.9788    4182.6908    5042.3396 
    4500    307.41733   -1716.6409   -1699.5143     101.7945    5056.6035 
    4600    295.25261   -1715.4497   -1699.0008   -5898.2773    5072.4524 
    4700    303.23046   -1715.4403    -1698.547   -2955.5121    5063.5969 
    4800    332.29542   -1716.7341   -1698.2215    1145.6098    5050.7023 
    4900    321.50809   -1715.9484   -1698.0369    3251.2476    5047.3807 
    5000    298.64198   -1714.7095   -1698.0718    1602.2266    5050.6968 
    5100    293.45637   -1714.6687   -1698.3199    483.51517    5054.4495 
    5200    304.17567   -1715.6443   -1698.6983   -4644.9169    5069.7326 
    5300    310.86225   -1716.5096   -1699.1911   -5154.2315    5070.0973 
    5400    307.94911   -1716.8039   -1699.6477    2586.7398    5046.5962 
    5500    268.86519    -1714.975   -1699.9963    6974.6389    5031.9159 
    5600    288.59976   -1716.3564   -1700.2782    5411.7742    5035.6441 
    5700     290.1028   -1716.5631   -1700.4011   -2719.5632    5060.6799 
    5800    295.20216   -1716.7442   -1700.2982   -10850.465    5086.3054 
    5900    300.96651   -1716.9117   -1700.1445   -5898.8194    5073.6006 
    6000    280.63917   -1715.3608    -1699.726    3784.2377    5041.4166 
    6100    303.02431   -1716.0332   -1699.1514    9198.5719    5025.5462 
    6200    312.37037   -1716.0984   -1698.6959    3273.9526    5042.8731 
    6300    301.93174   -1715.2159    -1698.395   -1696.5917    5061.5849 
    6400    310.04361   -1715.4944   -1698.2215   -3917.6229    5066.8999 
    6500    291.67576   -1714.5185   -1698.2689   -1358.1877    5058.3318 
    6600    316.65851    -1716.101   -1698.4596    2386.7786     5047.529 
    6700    309.22709   -1716.1353   -1698.9079    1655.1051    5048.7811 
    6800    294.05346   -1716.1184   -1699.7363    94.110297    5051.9667 
    6900    291.04341   -1716.7582   -1700.5439    -1688.223    5057.8638 
    7000    286.88048   -1716.8364   -1700.8539   -3441.8027    5061.5335 
    7100    270.27461   -1715.9014   -1700.8441   -271.70343    5054.3518 
    7200    301.33587   -1717.4218   -1700.6341     3015.806    5043.3516 
    7300    289.70058   -1716.4543   -1700.3148    4157.9446    5039.7983 
    7400    293.51813   -1716.2721   -1699.9199   -47.703601     5052.763 
    7500    297.11655   -1716.0233   -1699.4706   -4531.3094    5068.3274 
    7600    293.40039   -1715.4541   -1699.1084   -3923.0863    5069.1374 
    7700     308.7987   -1716.0471   -1698.8435    522.91874    5052.2175 
    7800    305.62774   -1715.6916   -1698.6648    4891.2004    5039.7242 
    7900    295.61519    -1715.084    -1698.615    2051.3382     5047.964 
    8000    307.48802   -1715.8012   -1698.6707   -2304.7088    5062.4862 
    8100    301.24484   -1715.6272   -1698.8445   -3648.0353    5068.8547 
    8200    282.16873   -1715.0705   -1699.3505   -2492.9593     5062.169 
    8300    305.44117   -1717.3087   -1700.2922    3365.0314    5041.5306 
    8400    296.69468   -1717.5099   -1700.9807    6618.2322    5031.5987 
    8500    272.53488   -1716.4319   -1701.2487    1239.6596    5047.9029 
    8600    293.41295    -1717.461   -1701.1146   -6352.9057    5072.6915 
    8700    288.50156   -1716.8216   -1700.7488   -9348.2801    5080.3183 
    8800    294.12154   -1716.7146   -1700.3287   -489.31794    5054.8096 
    8900    305.55302   -1716.7912   -1699.7685     7343.921    5030.9176 
    9000    302.04995   -1716.1911   -1699.3636    8063.2667    5029.3643 
    9100    302.52245   -1716.0191   -1699.1653    389.74817    5052.1761 
    9200    302.75299   -1715.8203   -1698.9536   -6491.7409     5072.486 
    9300     312.6375   -1716.2994   -1698.8821   -4967.3023     5068.631 
    9400    309.23876    -1716.121    -1698.893   -193.79386    5055.0802 
    9500    312.10986   -1716.3324   -1698.9445    4087.8075     5041.552 
    9600    297.67681   -1715.6872   -1699.1033    3335.9251    5043.0968 
    9700    287.38359   -1715.4267   -1699.4162   -985.71803    5057.3614 
    9800    293.62015    -1716.371   -1700.0131   -2780.3162    5064.1479 
    9900    293.11954   -1717.1328   -1700.8028    -2363.786    5058.7689 
   10000    279.31349   -1716.8475   -1701.2866    3039.6985    5043.4028 
Loop time of 3.0089 on 4 procs for 10000 steps with 432 atoms

Performance: 574.296 ns/day, 0.042 hours/ns, 3323.474 timesteps/s
99.3% CPU use with 4 MPI tasks x 1 OpenMP threads

MPI task timing breakdown:
Section |  min time  |  avg time  |  max time  |%varavg| %total
---------------------------------------------------------------
Pair    | 2.3784     | 2.3932     | 2.4157     |   0.9 | 79.54
Neigh   | 0.00021911 | 0.00023258 | 0.0002389  |   0.0 |  0.01
Comm    | 0.40758    | 0.42925    | 0.44554    |   2.1 | 14.27
Output  | 0.019236   | 0.019339   | 0.019619   |   0.1 |  0.64
Modify  | 0.12993    | 0.13099    | 0.13181    |   0.2 |  4.35
Other   |            | 0.03587    |            |       |  1.19

Nlocal:    108 ave 112 max 102 min
Histogram: 1 0 0 0 0 0 0 2 0 1
Nghost:    1566.5 ave 1572 max 1560 min
Histogram: 1 0 0 0 0 2 0 0 0 1
Neighs:    7495 ave 7699 max 7152 min
Histogram: 1 0 0 0 0 1 0 0 0 2

Total # of neighbors = 29980
Ave neighs/atom = 69.3981
Neighbor list builds = 1
Dangerous builds = 0
----- Production run -----
Setting up Verlet run ...
  Unit style    : metal
  Current step  : 10000
  Time step     : 0.002
Per MPI rank memory allocation (min/avg/max) = 4.269 | 4.269 | 4.269 Mbytes
Step Temp PotEng TotEng Press Volume Pxx Pyy Pzz v_my_lx f_1 f_2 f_3 f_4 f_5 
   10000    279.31349   -1716.8475   -1701.2866    3039.6985    5043.4028    2860.1259    2813.3359    3445.6336    2.8581826            0            0            0            0            0 
   10100    278.36186     -1716.91   -1701.4021    2596.9834     5043.309    2665.6637    2743.9348    2381.3517    2.8581649     5051.163    281.94258   -1701.3739    257.09092    2.8596472 
   10200    290.48602   -1717.4059   -1701.2226   -518.36282    5051.8152   -27.725609   -900.19762   -627.16523    2.8597708    5050.9167    283.98167   -1701.3554    279.60328    2.8596008 
   10300    283.11988   -1716.5727   -1700.7997   -700.03975    5057.4147   -891.50815   -1015.2107   -193.40043    2.8608271    5051.1429    283.54408   -1701.2456    192.44827    2.8596435 
   10400    296.67109   -1716.7889    -1700.261   -2942.9632    5060.7467    -2636.647    -2693.383   -3498.8597    2.8614552    5051.8493    285.05609   -1701.0663    28.672563    2.8597768 
   10500    285.86644   -1715.7591   -1699.8332   -651.07138    5053.7105   -920.85217   -267.26153   -765.10044    2.8601284     5052.234    286.77185   -1700.8588    -9.089191    2.8598494 
   10600    304.47554   -1716.5296   -1699.5669    1901.9298    5046.5025    1553.6828    1340.5072    2811.5995     2.858768    5052.4396    288.49921   -1700.6634   -23.212561    2.8598882 
   10700    295.15416   -1715.8246   -1699.3812    2801.7564    5046.4041    2897.3133    2385.1268    3122.8292    2.8587494    5052.3602     290.0755   -1700.4929    42.289149    2.8598732 
   10800    312.95423   -1716.6927   -1699.2577    109.02366    5053.7193   -1040.1932    193.37794    1173.8862    2.8601301    5052.3316    291.15248   -1700.3459    89.456319    2.8598678 
   10900    300.88046   -1715.8995   -1699.1371   -2419.8825    5059.8867   -3393.8007   -2192.8099    -1673.037    2.8612931    5052.5156    292.19368   -1700.2177    55.280516    2.8599025 
   11000    295.23028    -1715.493   -1699.0454   -2493.0734    5061.8708   -2692.5175   -2459.9457   -2326.7569     2.861667     5052.798    293.27665   -1700.1045    11.548774    2.8599557 
   11100    300.12792   -1715.7091   -1698.9887   -1352.3898    5058.1892   -1907.4309   -942.78654   -1206.9518    2.8609731    5052.9993    294.02297   -1700.0055   -19.770414    2.8599937 
   11200    295.33548   -1715.4089   -1698.9554    2025.6965    5049.3241    1064.9764    1721.2904    3290.8228    2.8593007    5053.0459    294.77784   -1699.9191   -8.4202494    2.8600025 
   11300    285.92201   -1714.9069   -1698.9778    3798.0827    5043.1248     4429.551    2978.6827    3986.0143    2.8581301    5052.9971     295.4075   -1699.8453    35.562187    2.8599933 
   11400    303.35534   -1715.9958   -1699.0956   -914.33682    5054.4324   -553.75851   -1295.5013   -893.75062    2.8602646    5053.0264     295.8891   -1699.7867    41.540975    2.8599988 
   11500    312.40118   -1716.7422    -1699.338   -3665.2925    5064.4614   -3949.1946   -3217.3687   -3829.3142    2.8621551    5053.1895    296.25605   -1699.7479    15.386978    2.8600296 
   11600    291.20273   -1715.9297   -1699.7065   -2561.6576    5063.1858   -2188.4013   -3269.2649   -2227.3067    2.8619148    5053.3077     296.3772   -1699.7338   -13.776888    2.8600519 
   11700    309.55534   -1717.3454   -1700.0997    279.03826    5051.7813    840.56722    -856.6133    853.16085    2.8597645    5053.3461    296.29266   -1699.7438   -22.027063    2.8600591 
   11800     278.4177   -1715.9155   -1700.4045    4066.8838    5040.0992    2745.8072    5082.3647    4372.4796    2.8575584    5053.2704    296.00191   -1699.7726    -1.470733    2.8600448 
   11900    271.14809   -1715.7013   -1700.5953    3245.6502    5043.0422    3222.2108    3149.0815    3365.6582    2.8581145    5053.1633    295.72767   -1699.8116    33.017085    2.8600245 
   12000    300.29194     -1717.34   -1700.6104   -2066.6293    5059.9304   -2706.8601   -1910.4652   -1582.5626    2.8613013     5053.132    295.44587   -1699.8517    38.074176    2.8600186 
   12100    284.64159    -1716.232   -1700.3743   -5414.9653    5071.8248   -5382.6198   -5490.8899   -5371.3862    2.8635416    5053.2209    295.00487   -1699.8835    10.643817    2.8600353 
   12200    298.81735   -1716.5168   -1699.8693   -1597.4618     5059.019   -1424.1835   -1768.5628    -1599.639    2.8611295    5053.3694    294.91839   -1699.8956   -20.550559    2.8600633 
   12300    305.32944    -1716.135   -1699.1248    2983.1901    5044.0374    3096.9626    2327.7569    3524.8509    2.8583025    5053.4102    295.07236   -1699.8779   -16.981609     2.860071 
   12400    309.40836   -1715.7713   -1698.5339    3795.8958    5043.1465    3835.5376    4144.6073    3407.5425    2.8581342    5053.4167    295.41663   -1699.8331    10.477159    2.8600722 
   12500    305.81344   -1715.3222    -1698.285    2489.6849    5049.1659    2002.0555    2988.7405    2478.2586    2.8592709    5053.4064    295.97991   -1699.7751    29.526382    2.8600702 
   12600    304.98384   -1715.2412   -1698.2503    -2832.226    5063.1406    -2131.546   -3207.3552   -3157.7768    2.8619063    5053.4911    296.42941   -1699.7165     22.84634    2.8600862 
   12700     301.5011   -1715.1638   -1698.3668   -3971.5011    5066.0771   -4520.9186   -3257.9329   -4135.6519    2.8624595    5053.6489     296.9529   -1699.6639   -1.8210412    2.8601159 
   12800    292.84164   -1714.9217   -1698.6072    678.71298     5055.484     429.0399    1145.8644    461.23466     2.860463    5053.7517    297.26813   -1699.6216   -9.1177774    2.8601353 
   12900    291.82854   -1715.1876   -1698.9295    2323.1226    5048.9883    2490.8589    2504.6719    1973.8369    2.8592373    5053.7929     297.5216    -1699.592   -9.6251939    2.8601431 
   13000    303.93636   -1716.2007    -1699.268    4081.0519    5042.0889     3457.133    4480.3734    4305.6492    2.8579343    5053.7631    297.67264   -1699.5757     9.591952    2.8601375 
   13100     302.3401   -1716.4578   -1699.6141    1675.3561    5049.4221     1823.607    1346.0222     1856.439    2.8593192    5053.7429    297.64853   -1699.5716    26.516726    2.8601337 
   13200    283.33244   -1715.6282   -1699.8435   -3690.8923    5065.0378   -4522.7266   -3534.9463    -3015.004    2.8622637    5053.7836    297.69738   -1699.5765    18.187856    2.8601413 
   13300    292.47282   -1716.2666   -1699.9726   -5128.8152    5070.6872   -5389.5673   -4499.2718   -5497.6066    2.8633275    5053.8601    297.57137    -1699.587   -3.7388597    2.8601557 
   13400    296.43858   -1716.5527   -1700.0378   -1289.2003    5059.6865   -2022.9259   -337.38848   -1507.2866    2.8612554    5053.9205    297.41893   -1699.5997   -18.266486    2.8601671 
   13500    295.83366   -1716.4181   -1699.9369    4817.8895    5039.4016    5084.0158     4453.049    4916.6038    2.8574265    5053.8933    297.31924    -1699.611   -10.829932    2.8601619 
   13600    309.13341   -1716.6894   -1699.4672    5423.5329    5035.2029    5827.9363    4579.3845    5863.2779    2.8566327    5053.8232    297.31983   -1699.6151    16.141313    2.8601487 
   13700     310.2679   -1715.6539   -1698.3685    1222.3326    5053.2442    440.21823    1202.4651    2024.3144    2.8600405    5053.8174    297.49916   -1699.5966    29.144851    2.8601475 
   13800    293.60074   -1713.9089   -1697.5521   -6323.9912    5077.8847   -5497.9927   -6407.9601   -7066.0208    2.8646816    5053.9306    297.86507   -1699.5522    13.341984    2.8601688 
   13900    313.64592   -1714.7592   -1697.2856   -5096.9609    5074.6725   -4593.9115   -5720.5267   -4976.4445    2.8640774    5054.0611    298.29314    -1699.497   -6.6853613    2.8601934 
   14000    312.36539   -1714.8099   -1697.4076    446.14678    5054.0469     181.3293    326.76233     830.3487    2.8601919     5054.166    298.77302   -1699.4424   -20.508747    2.8602131 
   14100    310.61628   -1715.0531   -1697.7483    7341.7232    5031.2105    6875.6315     6825.542    8323.9963    2.8558775    5054.1688    299.16464   -1699.3964    -4.882792    2.8602136 
   14200    317.90223   -1716.0834   -1698.3727    4995.7432    5038.8251    5349.4123    3802.5597    5835.2575    2.8573176     5054.119    299.45528   -1699.3647    19.691947    2.8602041 
   14300    304.81981   -1716.0052   -1699.0233   -1018.8565    5058.3883      -1130.3   -656.97079   -1269.2986    2.8610106    5054.1002    299.58111   -1699.3493    26.495226    2.8602006 
   14400     292.0746   -1715.7295   -1699.4577   -5415.8548    5071.3105   -5769.7062   -5000.5082   -5477.3502    2.8634448    5054.1465    299.58647   -1699.3472    11.047231    2.8602093 
   14500    299.20107   -1716.4534   -1699.7846   -3469.7523    5063.4228   -3636.7936   -3843.0923   -2929.3709    2.8619595    5054.1849     299.5289   -1699.3537   -6.6376496    2.8602165 
   14600    288.77856   -1716.0773   -1699.9891    1051.5858    5050.2936   -137.67205    1608.2544     1684.175    2.8594837    5054.1808    299.45227   -1699.3654   -10.296871    2.8602157 
   14700    291.03211   -1716.2523   -1700.0386    3733.8474    5041.7441    3901.9605    3911.4979    3388.0839    2.8578692    5054.1312    299.33321   -1699.3793    1.9761904    2.8602063 
   14800    294.53175   -1716.4127    -1700.004     2360.449    5046.9947    2119.2871    1574.5432    3387.5167     2.858861    5054.0783    299.21266    -1699.393    10.048591    2.8601964 
   14900    288.64995   -1715.9134   -1699.8324   -1954.9883    5058.8019   -1675.5886   -1978.2713    -2211.105    2.8610886    5054.0653     299.0994   -1699.4039    13.106504    2.8601939 
   15000    303.24488   -1716.3232   -1699.4291   -2437.4272    5061.2435   -3160.8672   -2840.3176   -1311.0968    2.8615488    5054.1146    299.05471   -1699.4088   0.64461138    2.8602033 
   15100    311.53494   -1716.1113   -1698.7554     -1404.83    5057.8422   -918.31506   -1518.2417   -1777.9333    2.8609077    5054.1397    299.11104   -1699.4029   -2.8887708     2.860208 
   15200    315.60099    -1715.606   -1698.0235    1654.5064    5051.2817    1367.3675    1898.1692    1697.9824    2.8596702    5054.1583    299.28728   -1699.3831  -0.44240839    2.8602116 
   15300    314.90431   -1715.1418   -1697.5981    1954.1503    5050.3285    1605.3948    2396.9629    1860.0934    2.8594903    5054.1895    299.54926   -1699.3528    2.8207244    2.8602175 
   15400    298.80622   -1714.1823   -1697.5355    1422.7983    5053.1323    1475.8306    503.16734     2289.397    2.8600194    5054.2148    299.83174   -1699.3192    6.7574583    2.8602222 
   15500    307.51079   -1714.8592   -1697.7274   -515.11368    5059.7175   -543.31617    40.538281   -1042.5632    2.8612612    5054.2565    300.11381   -1699.2882    7.1741482    2.8602301 
   15600    324.33536   -1716.1247   -1698.0556   -3125.5784    5066.5933   -2626.8814   -3159.2658   -3590.5879    2.8625567    5054.3036     300.3201   -1699.2632    3.2053459     2.860239 
   15700    299.76272   -1715.1153   -1698.4152   -1043.9436    5060.5302   -1210.6787   -2277.1462    355.99429    2.8614144    5054.3466    300.45596   -1699.2453   -2.2005892    2.8602471 
   15800    306.18716   -1715.7774   -1698.7193    708.78339    5052.6472    856.90182    1003.3588    266.08955    2.8599278    5054.3761    300.55125   -1699.2338   -2.2802034    2.8602527 
   15900    296.74396   -1715.4873   -1698.9553    2998.2346    5045.7041    2189.4272    3592.1277    3213.1489    2.8586172    5054.3934    300.64137   -1699.2271   -1.1205696     2.860256 
   16000    304.54585   -1716.1139   -1699.1473    2346.4769    5048.0792    1910.6998    2524.8801    2603.8508    2.8590657     5054.375    300.66202   -1699.2242    7.2535711    2.8602525 
   16100    300.35777   -1716.0502   -1699.3169   -487.68184    5058.7422    -584.5869   -911.09659    32.637964    2.8610773    5054.3714    300.65067   -1699.2244    10.241934    2.8602519 
   16200    301.54021   -1716.2409   -1699.4417   -5188.1665    5068.4474   -5812.3624   -4751.9316   -5000.2056    2.8629058    5054.3913    300.61539    -1699.227    2.3429144    2.8602556 
   16300    290.70077   -1715.7759   -1699.5807   -2537.8463     5059.483   -1898.2568   -3377.7307   -2337.5515     2.861217    5054.4294    300.59878   -1699.2315   -10.428357    2.8602628 
   16400    318.34933   -1717.3861   -1699.6505      4782.33    5038.5872    5062.1441    4495.4779    4789.3681    2.8572726    5054.4118    300.56229   -1699.2375   -8.1425709    2.8602595 
   16500    304.27642   -1716.6321   -1699.6805    8369.9193    5028.1836    8822.8031    8287.7345    7999.2202    2.8553047    5054.3495    300.46993   -1699.2443    7.2094345    2.8602477 
   16600    291.24844   -1716.0368    -1699.811    1276.3745    5048.0007    1704.5048    1125.4429    999.17572    2.8590509     5054.287     300.4081   -1699.2518    23.881157    2.8602358 
   16700    282.20285   -1715.4571   -1699.7353   -7499.8895    5079.0422   -7943.2115   -7611.7071   -6944.7498    2.8648993    5054.3121    300.34193   -1699.2594    15.150058    2.8602405 
   16800    296.60196   -1716.1368   -1699.6128   -9163.9386    5082.0618   -9533.5617   -8492.6343   -9465.6199    2.8654669    5054.3815    300.27654   -1699.2658   -6.8817283    2.8602535 
   16900    302.53436   -1716.3176    -1699.463    -47.06288    5055.5729    203.97406     129.1189    -474.2816    2.8604797    5054.4025    300.23994   -1699.2699    -14.87865    2.8602574 
   17000    306.27455   -1716.1595   -1699.0966    7574.9577    5032.7102    7650.6378    7352.4481    7721.7874    2.8561613     5054.373    300.21668   -1699.2699   -3.2103905    2.8602518 
   17100    300.41723   -1715.5123   -1698.7758    6574.4192    5035.0995    6458.1584    6800.9522    6464.1468    2.8566132    5054.3418     300.2738   -1699.2654    12.624942    2.8602459 
   17200    310.03311   -1715.7752   -1698.5029   -600.30413    5058.5747   -1620.3988   -472.43979    291.92619    2.8610458    5054.3522    300.33981   -1699.2564    16.618017    2.8602478 
   17300    315.48005   -1715.8192   -1698.2435   -6649.5004    5076.9601    -7387.539   -6641.2375   -5919.7246    2.8645077    5054.4093    300.45822   -1699.2441    7.5268032    2.8602586 
   17400    308.36603   -1715.3497   -1698.1703     -4732.92    5072.2931   -5131.9915   -4391.4243   -4675.3442    2.8636297    5054.4743    300.56733   -1699.2301   -4.0886422    2.8602708 
   17500    297.58828   -1714.8481   -1698.2692    631.82895    5054.6332    505.12206    -388.1833    1778.5481    2.8603025    5054.5093    300.66094   -1699.2163    -6.513829    2.8602774 
   17600    310.02591   -1715.8454   -1698.5735      5179.52     5039.616    4658.1592    5068.0763    5812.3246    2.8574671    5054.5182    300.76571   -1699.2055   -2.2458757    2.8602791 
   17700    293.53826   -1715.5168   -1699.1635    4372.7048    5041.4956    4097.1702     4294.249    4726.6954    2.8578223    5054.5106    300.79885    -1699.201    8.3488369    2.8602776 
   17800    297.98081   -1716.4581   -1699.8572     331.8834    5054.5915    724.62568   -230.15201    501.17652    2.8602946    5054.5019    300.76586   -1699.2051    10.238052     2.860276 
   17900    290.58826   -1716.5143   -1700.3253    -3193.934    5063.7351   -3395.1396   -3979.9813   -2206.6812    2.8620183    5054.5054    300.66769   -1699.2167      8.11117    2.8602767 
   18000    282.32719   -1716.2551   -1700.5263   -3881.4986    5066.0265   -3664.2439   -4466.6045   -3513.6473      2.86245    5054.5211    300.54213   -1699.2321  -0.74518443    2.8602796 
   18100    290.49239   -1716.7001   -1700.5165    404.57617    5052.2242    99.855489    712.76325    401.10976     2.859848    5054.5199    300.40728   -1699.2482   -2.2332759    2.8602794 
   18200    274.63661   -1715.6347   -1700.3343    3703.1348    5044.7091    3033.3346    3346.1111    4729.9586    2.8584293    5054.5044    300.28388   -1699.2626   0.60496885    2.8602765 
   18300    291.17893   -1716.2735   -1700.0516    3053.9357    5046.9151    2720.9391    3496.0429    2944.8249    2.8588459    5054.4808    300.17313   -1699.2739    6.8232993    2.8602721 
   18400    303.24082    -1716.616   -1699.7221   -556.08024    5056.9218    402.88646   -703.92741   -1367.1998    2.8607341    5054.4764     300.1123   -1699.2812    9.6076589    2.8602712 
   18500    291.24097   -1715.6285   -1699.4031   -4370.8604    5068.2051    -5047.223    -4799.972   -3265.3862    2.8628602    5054.4939    300.08033   -1699.2844    7.2880992    2.8602746 
   18600    311.57933   -1716.5459   -1699.1875   -5023.3515    5070.0879   -4842.8295   -5030.4068   -5196.8181    2.8632147    5054.5302     300.1053   -1699.2844   -2.2607291    2.8602814 
   18700     298.5859   -1715.7495    -1699.115    684.71027    5055.2956     325.9499    650.96893     1077.212    2.8604274    5054.5609      300.097   -1699.2827   -7.2540264    2.8602872 
   18800    288.94561   -1715.1347   -1699.0372    5722.1368      5038.18    5170.8723    5502.9657    6492.5724    2.8571956    5054.5418    300.10745   -1699.2803    1.8819745    2.8602836 
   18900    297.79587   -1715.6615    -1699.071    3925.9595    5042.8477    4677.1383    3188.1855    3912.5547    2.8580777    5054.5212    300.12646   -1699.2777    10.852708    2.8602797 
   19000    300.43379   -1715.8473   -1699.1098   -1864.4302    5060.0103   -2021.9284   -2259.5778   -1311.7843    2.8613164    5054.5269    300.17321   -1699.2755    11.501042    2.8602807 
   19100    297.96593   -1715.7361   -1699.1361   -5713.8764     5073.846   -5792.6068   -5547.3547   -5801.6677    2.8639219    5054.5547    300.17698   -1699.2739    5.2735715     2.860286 
   19200    300.65246   -1715.9835   -1699.2338   -5389.3236    5073.0833   -5236.0275   -5729.3519   -5202.5914    2.8637784    5054.5897    300.17408    -1699.273   -4.3105147    2.8602926 
   19300    286.58235   -1715.3457   -1699.3798    2421.2953    5046.8702    2353.3326    3049.8609    1860.6925    2.8588374    5054.6071    300.16537   -1699.2732   -9.0414312    2.8602958 
   19400    303.57151   -1716.3709   -1699.4586    9379.0314    5024.7866    10284.078    8801.0561    9051.9602    2.8546615     5054.578    300.16273   -1699.2747    1.2476051    2.8602903 
   19500    297.34606    -1716.325   -1699.7596    5983.9947    5035.1365    6084.5948    5691.0703     6176.319    2.8566202    5054.5359    300.13722   -1699.2783    13.454542    2.8602823 
   19600    290.94497    -1716.413   -1700.2042   -3029.7007     5063.539   -3935.2996   -2851.6124   -2302.1902    2.8619814    5054.5229    300.06083   -1699.2854    14.457078    2.8602798 
   19700    283.27352   -1716.4292   -1700.6477   -7096.4459    5075.5486   -6986.0868   -6774.3535   -7528.8975    2.8642422    5054.5337    299.96168   -1699.2972    6.7565167    2.8602819 
   19800    274.04914   -1716.3119   -1701.0443   -5053.4466    5067.0387   -5166.2062   -5496.1498   -4497.9838    2.8626406    5054.5467    299.81825   -1699.3133   -3.8391114    2.8602843 
   19900    295.78882   -1717.6767    -1701.198    2372.5284    5044.4529    2014.7111    2139.8415    2963.0326    2.8583809    5054.5278    299.65666   -1699.3317   -4.5726307    2.8602807 
----FINISHED: 1/40 ---- T=300 P=0 ---- n_pres=10
   20000    290.53666   -1717.2158   -1701.0297    5599.4721     5035.505    5821.1768    5254.9586    5722.2809    2.8566899    5054.4737      299.517   -1699.3497     3.872426    2.8602705 
Loop time of 3.5147 on 4 procs for 10000 steps with 432 atoms

Performance: 491.649 ns/day, 0.049 hours/ns, 2845.190 timesteps/s
99.5% CPU use with 4 MPI tasks x 1 OpenMP threads

MPI task timing breakdown:
Section |  min time  |  avg time  |  max time  |%varavg| %total
---------------------------------------------------------------
Pair    | 2.708      | 2.7644     | 2.8086     |   2.2 | 78.65
Neigh   | 0.00021887 | 0.00023007 | 0.00024319 |   0.0 |  0.01
Comm    | 0.3798     | 0.42367    | 0.47933    |   5.7 | 12.05
Output  | 0.020337   | 0.020481   | 0.020853   |   0.2 |  0.58
Modify  | 0.26738    | 0.26871    | 0.27053    |   0.3 |  7.65
Other   |            | 0.03717    |            |       |  1.06

Nlocal:    108 ave 115 max 102 min
Histogram: 1 0 0 1 0 1 0 0 0 1
Nghost:    1559 ave 1569 max 1549 min
Histogram: 1 0 1 0 0 0 0 0 1 1
Neighs:    7499.75 ave 8019 max 6931 min
Histogram: 1 0 0 1 0 0 0 1 0 1

Total # of neighbors = 29999
Ave neighs/atom = 69.4421
Neighbor list builds = 1
Dangerous builds = 0
System init for write_data ...
Setting up Verlet run ...
  Unit style    : metal
  Current step  : 0
  Time step     : 0.002
Per MPI rank memory allocation (min/avg/max) = 4.269 | 4.269 | 4.269 Mbytes
Step Temp PotEng TotEng Press Volume 
       0          300   -1717.2158   -1700.5025    5711.3032     5035.505 
     100    277.30065   -1715.8793   -1700.4306    3025.7785    5042.4634 
     200    289.10513   -1716.2489   -1700.1425    126.99075    5053.9275 
     300    313.83235   -1717.1044   -1699.6205   -4596.7086    5067.5863 
     400    319.12397   -1716.7643   -1698.9855   -1532.1975    5058.8915 
     500    308.92609   -1715.6669   -1698.4563    5745.9528    5038.6385 
     600    319.24854   -1716.0008   -1698.2151    6672.9141    5033.4321 
     700    303.96704   -1715.1957   -1698.2614    1789.4268    5050.1911 
     800    310.82908   -1715.6825   -1698.3658   -4992.4318    5073.1628 
     900    301.06853   -1715.3344   -1698.5615    -5710.113    5073.8765 
    1000    297.28346   -1715.3828   -1698.8208     2381.399    5049.4195 
    1100    311.64407   -1716.4198   -1699.0578    5660.3411    5037.6736 
    1200    291.97187   -1715.6032   -1699.3372    3421.2289    5044.1997 
    1300    304.02163   -1716.5333   -1699.5959    828.54819    5053.1982 
    1400    289.67622   -1715.9409   -1699.8027   -507.03629    5056.6817 
    1500     288.1805   -1716.0286   -1699.9738    319.38851    5050.2054 
    1600    276.73857   -1715.5472   -1700.1298    2657.4022    5044.5095 
    1700    287.54932   -1716.3571   -1700.3374    3863.5147    5044.1518 
    1800    298.25822   -1717.2051   -1700.5888    710.38401    5050.0613 
    1900     274.2644   -1716.0286    -1700.749   -1413.4837    5056.1996 
    2000    286.71334   -1716.6918   -1700.7187   -2069.4436    5059.8738 
    2100    311.67478   -1717.8222   -1700.4584   -251.61896     5053.555 
    2200    281.31853   -1715.6373   -1699.9648    3670.8504    5043.0018 
    2300    290.52565   -1715.5737   -1699.3882    3966.2229    5041.8525 
    2400    316.14964   -1716.5179   -1698.9049   -625.55208    5053.3174 
    2500    317.10809   -1716.2363   -1698.5699   -788.50125    5058.2854 
    2600    306.03257   -1715.4572   -1698.4078   -517.69949    5059.3066 
    2700    294.58237   -1714.7983   -1698.3868    931.80837    5053.4796 
    2800    312.03188   -1715.9134   -1698.5297    2599.5036     5046.883 
    2900    314.71663   -1716.4043   -1698.8711    3037.9653    5044.5828 
    3000    298.94414   -1716.1457   -1699.4912    773.64991    5050.9702 
    3100    287.63119   -1716.2529   -1700.2286    -1202.076    5058.6497 
    3200     292.3432   -1717.0064   -1700.7197   -2159.4554    5059.1723 
    3300    288.17698   -1716.9262   -1700.8716    877.20446    5048.5815 
    3400    287.42531   -1716.7765   -1700.7637    4493.7998    5037.8166 
    3500    293.80408   -1716.9146   -1700.5465    5059.5597    5036.5745 
    3600    281.81874   -1715.9925    -1700.292    1357.3843    5050.5208 
    3700     282.9734   -1715.7246   -1699.9598   -4939.2786    5066.6495 
    3800     285.4657   -1715.5606    -1699.657    -2200.031    5059.4395 
    3900    316.39647   -1716.9848    -1699.358    4103.3834    5041.2377 
    4000    294.98698   -1715.5458   -1699.1118    5262.1185    5036.5751 
    4100    295.07985   -1715.3966   -1698.9573    3231.1429    5042.9592 
    4200    303.06184   -1715.7692   -1698.8853   -612.79332    5055.7131 
    4300    299.18931   -1715.5141   -1698.8459   -3862.2656    5066.1765 
    4400    306.33889   -1715.9991   -1698.9327   -1000.6508    5057.2361 
    4500    293.47667   -1715.4889    -1699.139    4265.7818    5040.4401 
    4600    300.92281   -1716.5709   -1699.8061    5649.6704    5034.6281 
    4700    291.38882   -1716.8569   -1700.6233    2835.0758    5044.3836 
    4800    296.80343   -1717.6242   -1701.0889   -3755.1437    5063.2223 
    4900    273.91858   -1716.4694   -1701.2091   -5364.9769    5067.5386 
    5000    282.96231   -1716.8316   -1701.0675     2506.663    5043.8089 
    5100    278.07873   -1716.0681    -1700.576    8969.2724    5024.5665 
    5200     289.0407   -1716.0951   -1699.9923    6914.8318    5029.4556 
    5300    307.63857    -1716.647   -1699.5081   -1647.8786    5057.1013 
    5400     301.5655   -1715.8874   -1699.0869   -8171.7289    5077.1918 
    5500    300.79709   -1715.6892   -1698.9315   -5899.8117    5071.8986 
    5600    312.76751   -1716.3094   -1698.8848    3221.7932    5043.8834 
    5700    313.56056   -1716.2764   -1698.8076    8553.8895    5028.3115 
    5800    286.85087   -1714.9176   -1698.9368    4444.0619    5042.1749 
    5900    297.58552   -1715.6681   -1699.0893    -1657.123    5059.8459 
    6000    303.35974   -1716.2414   -1699.3409   -1611.4178    5059.9011 
    6100    296.84627   -1716.3434   -1699.8057   -774.60256       5054.7 
    6200    291.68204   -1716.7631   -1700.5132    2741.8835    5044.5276 
    6300    290.01744   -1717.3122    -1701.155    2170.2821    5043.7129 
    6400    277.00598   -1716.8791   -1701.4468     2315.286    5043.7205 
    6500    278.68288   -1716.9341   -1701.4084    1669.3534    5046.7191 
    6600    286.42485   -1717.0538   -1701.0968    1007.0472    5047.8766 
    6700    296.92378   -1717.1494   -1700.6074    944.22043    5049.1459 
    6800    289.66631   -1716.2935   -1700.1558    990.20391    5050.4512 
    6900    307.99067   -1717.0218   -1699.8633   -1249.7055    5055.4762 
    7000    312.35526   -1717.0659   -1699.6642   -1070.7581    5055.8076 
    7100    294.32184    -1715.895    -1699.498    5.7635962    5053.1702 
    7200     301.0516   -1716.0825   -1699.3106    4541.5155    5040.3036 
    7300    297.91695   -1715.7308   -1699.1336    5495.1176    5037.7616 
    7400    320.62147   -1716.8473   -1698.9851    238.17705    5051.0618 
    7500    307.34548   -1715.9583   -1698.8357    -1834.874    5060.5318 
    7600    293.58261   -1715.0772   -1698.7214   -2261.1702    5060.6925 
    7700    303.47275   -1715.5616   -1698.6548     1799.711    5048.5155 
    7800    291.11829   -1714.8812   -1698.6627    5558.7434    5037.9393 
    7900    313.88181   -1716.3338   -1698.8471    4775.9756    5039.2012 
    8000    290.22922   -1715.3882   -1699.2192   -952.41113    5056.5537 
    8100    292.62109   -1715.9784   -1699.6762   -4118.9649    5065.9188 
    8200    289.86846   -1716.2895   -1700.1406   -1374.6418    5057.0738 
    8300    296.00048   -1716.9483   -1700.4578     3277.324    5041.0331 
    8400    297.44509   -1717.1467   -1700.5757    8519.4063     5025.611 
    8500    276.36066   -1716.0085   -1700.6121    4113.3807    5039.0015 
    8600    279.78148   -1715.9488   -1700.3619    -3644.026    5063.5091 
    8700     302.5396      -1716.6   -1699.7452   -4172.1066    5066.9349 
    8800    294.65784    -1715.388   -1698.9722    -661.1447    5055.5744 
    8900    307.53615   -1715.5231   -1698.3899    5411.7164    5037.1015 
    9000    325.08778   -1716.3076   -1698.1966    6474.1613    5034.1966 
    9100    318.23859   -1715.9925   -1698.2631    713.69791    5050.3694 
    9200    313.30188   -1715.8811   -1698.4267   -3270.1431    5064.6457 
    9300    310.72119     -1716.01   -1698.6994   -2719.0587    5062.5029 
    9400    297.50664   -1715.6105   -1699.0361    2918.0823    5045.7275 
    9500    311.83229   -1716.7487   -1699.3762    3912.7458    5040.2133 
    9600     293.7845   -1716.0728   -1699.7058    2550.5698     5045.855 
    9700    296.62128   -1716.4764   -1699.9513    451.61325    5052.5636 
    9800    302.48721   -1716.9516   -1700.0997   -167.64815    5053.6687 
    9900    290.65148   -1716.3545    -1700.162   -13.727997    5052.3147 
   10000     287.8278   -1716.1189   -1700.0837    1110.6589    5048.6126 
Loop time of 3.12793 on 4 procs for 10000 steps with 432 atoms

Performance: 552.441 ns/day, 0.043 hours/ns, 3196.998 timesteps/s
99.2% CPU use with 4 MPI tasks x 1 OpenMP threads

MPI task timing breakdown:
Section |  min time  |  avg time  |  max time  |%varavg| %total
---------------------------------------------------------------
Pair    | 2.4042     | 2.5121     | 2.6069     |   4.9 | 80.31
Neigh   | 0.00021982 | 0.00022864 | 0.00024199 |   0.0 |  0.01
Comm    | 0.34197    | 0.43364    | 0.5369     |  11.6 | 13.86
Output  | 0.018316   | 0.018419   | 0.01869    |   0.1 |  0.59
Modify  | 0.12219    | 0.128      | 0.13259    |   1.2 |  4.09
Other   |            | 0.03552    |            |       |  1.14

Nlocal:    108 ave 116 max 102 min
Histogram: 1 0 1 0 1 0 0 0 0 1
Nghost:    1561.25 ave 1568 max 1548 min
Histogram: 1 0 0 0 0 0 0 1 0 2
Neighs:    7497.5 ave 8025 max 7086 min
Histogram: 1 0 0 1 1 0 0 0 0 1

Total # of neighbors = 29990
Ave neighs/atom = 69.4213
Neighbor list builds = 1
Dangerous builds = 0
----- Production run -----
Setting up Verlet run ...
  Unit style    : metal
  Current step  : 10000
  Time step     : 0.002
Per MPI rank memory allocation (min/avg/max) = 4.269 | 4.269 | 4.269 Mbytes
Step Temp PotEng TotEng Press Volume Pxx Pyy Pzz v_my_lx f_1 f_2 f_3 f_4 f_5 
   10000     287.8278   -1716.1189   -1700.0837    1110.6589    5048.6126    1594.5149    1118.3381    619.12375    2.8591664            0            0            0            0            0 
   10100    291.98783   -1715.9059   -1699.6389    3328.0609    5044.4682    4224.3988      2022.81     3736.974    2.8583838    5049.7885    294.38885   -1699.9037    1127.6786    2.8593882 
   10200    300.60596   -1715.5966   -1698.8495    2533.0876    5047.7351    2529.3096    2205.1082     2864.845    2.8590007    5049.7447    297.50851   -1699.5779    1174.8701    2.8593799 
   10300    292.29631   -1714.4905   -1698.2064   -207.94874    5056.4689   -276.90983    290.58823   -637.52463    2.8606487     5050.203     300.4398   -1699.2177     1180.542    2.8594663 
   10400    318.99945   -1715.6093   -1697.8375    -1583.452    5059.3259   -1101.6234   -1945.2453   -1703.4874    2.8611874    5050.7951    303.32511   -1698.9109    1071.1158     2.859578 
   10500    328.16322    -1716.032   -1697.7497   -1588.6955    5061.1568   -2472.2072   -1783.6641   -510.21526    2.8615325    5051.3039    305.29554   -1698.6828    968.53762     2.859674 
   10600    314.18228   -1715.4262   -1697.9228    43.209029    5052.9884     519.1422    45.151579   -434.66669    2.8599922    5051.4134    306.72364   -1698.5372    939.74857    2.8596946 
   10700    291.96459   -1714.5964   -1698.3308    5003.6703    5038.8032    5360.4003    3823.4327    5827.1777    2.8573134     5051.332    307.21033   -1698.4762    975.31952    2.8596791 
   10800    301.62648   -1715.7193   -1698.9154    5100.5782    5036.7686    4306.9105     5090.648     5904.176    2.8569288    5051.0415    307.13683   -1698.4955    1051.8615    2.8596242 
   10900    316.86643   -1717.1402   -1699.4872    1027.4365    5047.9378    2611.7314    -88.03203    558.60997     2.859039     5050.805    306.49364   -1698.5757    1084.4966    2.8595795 
   11000    291.52272   -1716.0886   -1699.8475   -1772.5567    5059.3258   -2158.8769   -1340.6721   -1818.1213    2.8611874    5050.7941    305.33038   -1698.6862    1052.1066    2.8595774 
   11100    279.04892   -1715.5825   -1700.0364   -3593.4617    5063.9567   -3207.8568   -4257.9594    -3314.569    2.8620601    5050.7925    304.47103   -1698.8016    1008.0315     2.859577 
   11200    294.94878   -1716.5312   -1700.0993   -109.15092    5052.7238    499.63343    127.53726   -954.62344    2.8599423    5050.7907    303.51478   -1698.9078    960.91517    2.8595767 
   11300    308.21723    -1717.193   -1700.0219    4254.6079    5038.0323    3720.6823    4398.5445     4644.597    2.8571677    5050.6434    302.79604   -1698.9969    973.43036    2.8595488 
   11400    285.92725   -1715.7674   -1699.8381    5313.2491    5034.1659    6080.0443    3955.7628    5903.9404    2.8564366    5050.3637    302.23265   -1699.0649    1035.3257    2.8594959 
   11500    309.29118   -1716.8065   -1699.5755    1307.5421    5047.3514    1370.1848    817.25387    1735.1876    2.8589283    5050.1818    301.82599   -1699.1084    1062.3422    2.8594616 
   11600    289.90448   -1715.2327   -1699.0818   -3581.4391    5065.9725   -3089.3067   -4011.5916   -3643.4189    2.8624398    5050.2218    301.62565   -1699.1228    1037.7338    2.8594691 
   11700    307.58067   -1715.4433   -1698.3076   -7186.3873    5075.2255   -6697.7416    -8279.773   -6581.6471    2.8641815    5050.4282    301.87059   -1699.0986     980.3342    2.8595079 
   11800    318.22539   -1715.2509   -1697.5222   -334.14919    5055.9797   -1022.5373    611.84465   -591.75492    2.8605565    5050.6376    302.53121   -1699.0307    939.03778    2.8595472 
   11900    323.28898   -1715.0505   -1697.0397    7930.5228    5030.1803    7853.7052    8123.3492     7814.514    2.8556826    5050.6439    303.27565   -1698.9358    970.28393    2.8595482 
   12000    324.81824   -1715.1336   -1697.0377    10909.062    5020.8374     10953.34    11142.867    10630.981    2.8539135    5050.5072    304.04955   -1698.8412    1041.7303    2.8595221 
   12100    318.03037   -1715.1306   -1697.4127    1106.1214    5050.2669    1658.8464    1142.5945    516.92342    2.8594787    5050.4717    304.86009    -1698.764    1077.2655    2.8595152 
   12200    311.65705   -1715.0883   -1697.7255   -8109.0398    5078.4847    -7887.607   -8159.9765    -8279.536    2.8647944    5050.6373    305.25635   -1698.7086    1041.5789    2.8595463 
   12300    327.25032   -1716.3794   -1698.1479   -6887.2248    5075.9838   -7739.7273   -6483.6043   -6438.3428    2.8643241    5050.8433    305.51117    -1698.675    981.70113     2.859585 
   12400    301.18954   -1715.4013   -1698.6217    1324.0185    5050.1105     2332.162    716.15969    923.73379    2.8594491       5050.9    305.57222   -1698.6626    965.54759    2.8595956 
   12500    302.59742   -1715.8354   -1698.9774    6444.0707    5032.6049    6239.0589    6954.6167    6138.5364    2.8561413    5050.7975    305.54181    -1698.668    997.83439    2.8595762 
   12600    299.67165   -1716.0451     -1699.35    6249.1523    5034.6064    5757.2457    5688.7403     7301.471    2.8565199    5050.6493    305.41739   -1698.6879    1028.0205    2.8595483 
   12700    302.96713   -1716.5381   -1699.6595   -581.56614    5054.0735   -988.66239   -119.56979   -636.46624    2.8601969    5050.6152    305.12036   -1698.7187    1031.3523    2.8595419 
   12800     283.5568   -1715.6509   -1699.8537   -3692.4396    5062.9056   -2464.7698   -4308.3376   -4304.2114     2.861862    5050.6208     304.8317   -1698.7559    1009.7479     2.859543 
   12900    274.51481   -1715.2768   -1699.9833    448.75807    5050.3551     948.1939    695.06632   -296.98601    2.8594953    5050.6103    304.42146   -1698.7963    992.79766     2.859541 
   13000    294.16983   -1716.3863   -1699.9978    4904.5034    5036.3453    5680.3662    4782.9008    4250.2432    2.8568488    5050.5254     304.1426   -1698.8364    1000.2049    2.8595251 
   13100    290.85285   -1716.1267   -1699.9229    4150.4348    5038.7158     3284.212    5186.9038    3980.1885    2.8572969    5050.3962    303.83672   -1698.8733    1021.0646    2.8595007 
   13200    289.44499   -1715.7645   -1699.6392    1227.3739    5050.2855    1117.9037    933.21441    1631.0036    2.8594822    5050.3363    303.59105   -1698.9025    1025.5732    2.8594895 
   13300    297.17982   -1715.5156   -1698.9594   -2481.5958    5062.8323   -3242.2635   -1554.0242   -2648.4996    2.8618482    5050.3484    303.49252   -1698.9153    1018.0322    2.8594918 
   13400    307.11536   -1715.2888    -1698.179   -2626.2533    5062.9785   -1774.2309   -2245.5182   -3859.0107    2.8618758    5050.4244    303.54154   -1698.9045    999.39689    2.8595061 
   13500    321.89704   -1715.6562    -1697.723    1564.0656    5049.9199    1324.7449    1614.3085    1753.1435    2.8594132    5050.4724    303.81697   -1698.8761    989.69975    2.8595152 
   13600     301.5105   -1714.3754   -1697.5779    4907.0495    5041.1347    5088.3304    5761.9422     3870.876    2.8577541    5050.4754    304.12214   -1698.8414    1003.1527    2.8595158 
   13700    317.37478   -1715.4217   -1697.7404    4489.2801    5041.5495    4480.8518    4570.2575     4416.731    2.8578324    5050.4627    304.42136   -1698.8091    1016.2143    2.8595134 
   13800    316.14964   -1715.7767   -1698.1637     1345.168    5050.8013     1830.069    1381.4176    824.01737    2.8595795    5050.4658    304.58583   -1698.7861    1020.8893    2.8595141 
   13900    317.49736   -1716.4194   -1698.7312   -3584.6845    5063.4247    -4053.226   -3104.6015   -3596.2261    2.8619598    5050.5281      304.681   -1698.7773    1010.0683    2.8595259 
   14000    305.69868   -1716.2776   -1699.2468   -1281.6043    5058.2495   -793.93116    -1235.989   -1814.8926    2.8609845    5050.5757    304.65019   -1698.7829    997.46039    2.8595349 
   14100     294.3218   -1715.9617   -1699.5647    2190.5258    5046.9795    1374.9213    2770.6249    2426.0313    2.8588581    5050.5782    304.50464   -1698.7985    994.47659    2.8595354 
   14200    297.82272   -1716.2852   -1699.6932    4632.4159    5038.8529    4675.6944    4491.0258    4730.5274    2.8573228    5050.5347    304.33694   -1698.8187    1003.5753    2.8595272 
   14300    292.62241   -1716.0455   -1699.7431    3086.7323     5042.511    2626.7839    4963.9598    1669.4531    2.8580141    5050.4766    304.13616   -1698.8399    1017.2582    2.8595162 
   14400    282.43657   -1715.4541   -1699.7192   -2371.3323     5059.693   -3354.0529   -2426.7915   -1333.1524    2.8612566    5050.4713    303.96203   -1698.8602    1015.2024    2.8595153 
   14500    297.40775   -1716.1899    -1699.621   -4132.3163    5066.3826   -4276.8032   -4191.6391   -3928.5064     2.862517    5050.4907    303.82842   -1698.8782    1000.3488    2.8595189 
   14600    292.39938   -1715.8029    -1699.513    656.69913     5051.604    716.17464    347.39604    906.52669     2.859731    5050.5167    303.69208   -1698.8931    985.41679    2.8595238 
   14700    290.74024   -1715.4735    -1699.276    7507.2424    5029.4111    7668.8516    7829.1039    7023.7717     2.855537    5050.4825    303.61244   -1698.9038    992.63188    2.8595174 
   14800    327.23997   -1717.2113   -1698.9804    9295.9599    5024.1399    9204.0811    9971.1558    8712.6427    2.8545391    5050.3932    303.55778   -1698.9092    1019.6036    2.8595004 
   14900    313.02264   -1716.0608    -1698.622     631.1671    5050.2116   -142.84213    1231.2968    805.04658    2.8594682    5050.3404    303.57262   -1698.9073    1034.1907    2.8594904 
   15000     297.6248   -1714.4463   -1697.8653   -8046.4363    5080.6022   -7959.0985   -8897.1092   -7283.1013    2.8651926    5050.4012    303.68405   -1698.8941    1016.6167    2.8595018 
   15100     314.6337   -1714.7428   -1697.2142   -6885.0807    5077.4243   -7321.5754   -6662.1355   -6671.5311     2.864595    5050.5087    303.88652   -1698.8673    990.80763     2.859522 
   15200    311.29763   -1714.2705   -1696.9278    2372.8561    5049.1301    2378.3612    2718.8121    2021.3951    2.8592641    5050.5698    304.18025   -1698.8318     982.3852    2.8595334 
   15300    313.36167   -1714.3639   -1696.9062    8469.2835    5028.5961    8237.3466    8742.1937    8428.3103    2.8553828    5050.5468    304.47818   -1698.7949    1000.2488    2.8595291 
   15400    317.84484   -1715.1203   -1697.4128    5811.4309    5035.8018    4904.0679    6378.7351    6151.4896     2.856746    5050.5015    304.77101   -1698.7645    1020.1751    2.8595205 
   15500    323.17723   -1716.2227   -1698.2181   -756.59019    5055.7769  0.063837787   -1740.7645    -529.0699    2.8605182    5050.4972    304.93041    -1698.747    1023.6392    2.8595197 
   15600    324.33715   -1716.8554   -1698.7862    -4627.623    5066.9337   -4135.2176    -4590.521   -5157.1305    2.8626208    5050.5435    304.98367   -1698.7431    1009.4074    2.8595284 
   15700    300.08503   -1715.7992   -1699.0812   -1423.2378     5057.612   -1686.4029   -716.97039   -1866.3402    2.8608643    5050.5649    304.93366   -1698.7467    997.27957    2.8595325 
   15800    280.82954   -1714.8915   -1699.2462     3385.417    5044.0726    3570.8148    3760.2711     2825.165    2.8583091    5050.5618    304.87293   -1698.7539    997.85546    2.8595319 
   15900    298.10622   -1715.9808   -1699.3729    5451.8526     5035.576    4702.6392    5210.3943    6442.5244    2.8567033    5050.5117    304.80026   -1698.7634    1010.1197    2.8595225 
   16000    294.01842   -1715.8974   -1699.5173    2740.1992    5044.6053    2938.4325    2192.4179    3089.7472    2.8584097    5050.4742    304.67638   -1698.7749    1016.1173    2.8595154 
   16100     291.1411   -1715.8529   -1699.6331   -2617.1851    5061.5028   -2920.7616   -2104.1857   -2826.6081    2.8615977    5050.4724    304.57929    -1698.788    1011.4481    2.8595151 
   16200    288.01144   -1715.7665    -1699.721   -3656.2757    5064.6446   -3157.6017   -3815.4541   -3995.7711    2.8621897    5050.4845    304.46172   -1698.8024    1002.6985    2.8595174 
   16300    304.13059   -1716.7189   -1699.7755    499.19682    5051.1053    421.97206    265.83338    809.78503    2.8596369    5050.4847     304.3461   -1698.8174    997.41192    2.8595174 
   16400    299.65395   -1716.4484   -1699.7544    5130.1792     5037.974    4824.5176    5175.7185    5390.3014    2.8571567    5050.4559    304.21348   -1698.8323    1001.3886     2.859512 
   16500    286.29074   -1715.6066    -1699.657    4174.0669    5039.6944    4328.0417    3817.0245    4377.1347    2.8574819    5050.4251    304.09862    -1698.846    1010.5519    2.8595062 
   16600    297.39909   -1716.0116   -1699.4431    1194.7711    5050.8074    859.45454    1025.4028     1699.456    2.8595807    5050.4164    304.00466   -1698.8569    1013.5145    2.8595046 
   16700    300.17645    -1715.779   -1699.0558   -1515.4279    5059.1599   -2059.4316   -1250.3541    -1236.498    2.8611561     5050.438    303.94891   -1698.8628    1009.5758    2.8595087 
   16800    314.03469   -1716.0749   -1698.5797   -1142.7649    5057.9128   -419.44941   -1130.5045   -1878.3409     2.860921    5050.4672    303.94762   -1698.8621    1003.8292    2.8595142 
   16900    302.52519   -1715.0054   -1698.1514    326.64129    5054.9566   -66.588599    449.27011    597.24237    2.8603635    5050.4985    304.00828   -1698.8547     1001.163    2.8595202 
   17000    321.94514    -1715.793   -1697.8571    2591.5353    5047.3026    3146.4946    2310.5049    2317.6063    2.8589191    5050.5198     304.1251   -1698.8423    1003.3882    2.8595242 
   17100    318.18117   -1715.5137   -1697.7875    2731.3061    5047.2484    2197.8578    2848.9841    3147.0764    2.8589089    5050.5352    304.24846   -1698.8277    1006.4655    2.8595272 
   17200    308.52059   -1715.1858   -1697.9978    1474.4887    5050.3669    2384.2521     1781.047    258.16685    2.8594975    5050.5506    304.36253   -1698.8144     1010.239    2.8595301 
   17300    330.18935   -1716.9715   -1698.5762    -992.4172    5055.2707   -504.76258    -1153.413    -1319.076    2.8604227    5050.5779    304.44947   -1698.8067     1005.345    2.8595353 
   17400    299.33684   -1716.1077   -1699.4313    341.01115    5053.9954     605.0527   -157.48387    575.46463    2.8601822    5050.5942    304.44503   -1698.8093     1002.106    2.8595384 
   17500    294.94543   -1716.4427    -1700.011    1429.2619    5049.3668    871.62637    2106.1204    1310.0387    2.8593088    5050.5905    304.29748   -1698.8219    1003.3079    2.8595377 
   17600    288.09648   -1716.2843   -1700.2341    2544.8292    5045.6779    2214.7198    2427.4659    2992.3019    2.8586123    5050.5762    304.16433   -1698.8394    1005.2658     2.859535 
   17700    302.15173   -1717.0941   -1700.2609    1523.7692    5047.2794     1256.601    1378.4915     1936.215    2.8589147    5050.5614    304.01515   -1698.8579    1007.2398    2.8595322 
   17800    293.00878   -1716.4837   -1700.1598    715.79272    5052.2421    1900.7412    29.036567    217.60036    2.8598514    5050.5544    303.85019   -1698.8753    1007.6574    2.8595309 
   17900     287.8438   -1715.9738   -1699.9377   -1889.9961    5057.8811   -2301.0886    -1535.579   -1833.3207     2.860915    5050.5697    303.73678   -1698.8902    1003.2465    2.8595339 
   18000    296.47674   -1716.1395   -1699.6225   -588.39435    5055.7479   -1215.8455   -770.69693    221.35935    2.8605127    5050.5774    303.63129   -1698.9014     1000.655    2.8595353 
   18100    301.38544    -1716.017   -1699.2265     1996.084    5048.2705    1777.9062    1196.9318     3013.414    2.8591018    5050.5831    303.58332   -1698.9079    1000.1709    2.8595364 
   18200    297.72492   -1715.3969   -1698.8103    4775.1819    5038.8936    5002.9407    3631.4506    5691.1544    2.8573305    5050.5833    303.56686   -1698.9093    1002.0027    2.8595365 
   18300    316.29386   -1716.0744   -1698.4533    3476.1978    5042.9729    2747.3543    3695.9985    3985.2406    2.8581014    5050.5772    303.58763   -1698.9059    1008.3107    2.8595353 
   18400     296.9766   -1714.7464   -1698.2015    -1796.174    5060.6708   -2103.8445   -916.87773   -2367.7998    2.8614409    5050.5902    303.66146   -1698.8989    1012.2017    2.8595378 
   18500    308.44272   -1715.1632   -1697.9795   -4410.9238    5070.6038   -4769.2519   -4116.0846    -4347.435    2.8633118    5050.6396    303.73016   -1698.8892    1001.9062    2.8595471 
   18600    306.19688   -1714.9411   -1697.8826   -1274.7216    5060.4066   -561.72732   -2060.1144   -1202.3231    2.8613911    5050.6865    303.82499   -1698.8779    995.55311     2.859556 
   18700    303.79614   -1714.8705   -1697.9457    3729.3098    5043.2689    3776.9651    3687.8249    3723.1396    2.8581573    5050.7133    303.92456   -1698.8665    995.54958     2.859561 
   18800    301.31386   -1715.0898   -1698.3033    8640.1105    5029.9346    8657.3311      9190.02    8072.9803    2.8556361    5050.7116    303.99546   -1698.8579    1002.6971    2.8595607 
   18900    317.90851   -1716.6932   -1698.9822    3847.0529    5041.9826    4492.5449    3804.1041    3244.5096    2.8579143    5050.6875     304.0235   -1698.8556    1015.2035    2.8595561 
   19000     303.4136   -1716.4621   -1699.5586   -2965.0533    5064.0158   -3182.9453   -3181.5202   -2530.6943    2.8620712    5050.7058    303.96973   -1698.8602    1010.6866    2.8595596 
   19100    284.48811   -1715.8354   -1699.9863   -5777.4635    5071.6182   -5450.8657    -6386.213   -5495.3117    2.8635027    5050.7365    303.89575   -1698.8704    1001.0952    2.8595654 
   19200    304.04708   -1717.2196   -1700.2808   -1032.7819    5056.9061   -920.69485   -1029.4245   -1148.2265    2.8607312    5050.7503    303.77207   -1698.8842    995.64834     2.859568 
   19300    288.24165   -1716.4331   -1700.3748    6149.8075    5034.5649    5509.6782    5614.9299    7324.8145    2.8565121    5050.7323    303.61952   -1698.8999    998.91776    2.8595646 
   19400    281.02116   -1715.9986   -1700.3426    6234.6079    5033.2218    7222.1162    5913.6449    5568.0625     2.856258    5050.6943    303.50231   -1698.9157    1007.4853    2.8595574 
   19500    299.80371   -1716.8745   -1700.1721    447.31477    5051.4091    114.57217    748.34107    479.03107    2.8596942    5050.6794    303.37322   -1698.9301     1011.712    2.8595546 
   19600    294.79381   -1716.1505   -1699.7272   -3795.1568    5068.0149   -4206.0886   -3375.3012   -3804.0807    2.8628244    5050.6985    303.27671   -1698.9408    1007.0089    2.8595582 
   19700    303.17453   -1716.0366   -1699.1464   -4832.6037     5068.632   -4279.7911   -4440.3367   -5777.6832    2.8629406    5050.7363    303.22136   -1698.9459    997.73177    2.8595653 
   19800    316.85048   -1716.2557   -1698.6036    2955.1806    5046.7172    2481.8326    2641.4261    3742.2832    2.8588085    5050.7575    303.23655    -1698.945    994.57283    2.8595693 
   19900     308.8573   -1715.4355   -1698.2287    6449.4759    5035.3388    6621.5959    6527.1686    6199.6631    2.8566584    5050.7488    303.28957   -1698.9394    1002.8194    2.8595676 
----FINISHED: 2/40 ---- T=300 P=1000 ---- n_pres=10
   20000    302.25181   -1714.9874   -1698.1486    4476.3684    5041.2621    4741.8872    4246.7383    4440.4796    2.8577781     5050.755    303.34725   -1698.9319     1007.174    2.8595688 
Loop time of 3.57986 on 4 procs for 10000 steps with 432 atoms

Performance: 482.701 ns/day, 0.050 hours/ns, 2793.406 timesteps/s
99.1% CPU use with 4 MPI tasks x 1 OpenMP threads

MPI task timing breakdown:
Section |  min time  |  avg time  |  max time  |%varavg| %total
---------------------------------------------------------------
Pair    | 2.7219     | 2.7997     | 2.8943     |   3.7 | 78.21
Neigh   | 0.00021505 | 0.00022674 | 0.00023603 |   0.0 |  0.01
Comm    | 0.35963    | 0.45445    | 0.53173    |   9.1 | 12.69
Output  | 0.021256   | 0.021399   | 0.02177    |   0.1 |  0.60
Modify  | 0.26268    | 0.26552    | 0.26851    |   0.4 |  7.42
Other   |            | 0.03852    |            |       |  1.08

Nlocal:    108 ave 113 max 102 min
Histogram: 1 0 1 0 0 0 0 0 0 2
Nghost:    1551.5 ave 1559 max 1545 min
Histogram: 2 0 0 0 0 0 0 1 0 1
Neighs:    7511.5 ave 7936 max 6891 min
Histogram: 1 0 0 0 0 1 0 1 0 1

Total # of neighbors = 30046
Ave neighs/atom = 69.5509
Neighbor list builds = 1
Dangerous builds = 0
System init for write_data ...
Setting up Verlet run ...
  Unit style    : metal
  Current step  : 0
  Time step     : 0.002
Per MPI rank memory allocation (min/avg/max) = 4.269 | 4.269 | 4.269 Mbytes
Step Temp PotEng TotEng Press Volume 
       0          300   -1714.9874   -1698.2741    4449.7884    5041.2621 
     100    309.50767    -1715.611    -1698.368    2257.9073    5046.4506 
     200    296.09176   -1715.1388   -1698.6432    13.553616    5055.2476 
     300    297.13592   -1715.6712   -1699.1174   -746.47981    5056.4896 
     400    310.91111   -1717.0548   -1699.7336    2540.1634     5045.623 
     500    294.32737   -1716.7058   -1700.3085    4744.1385    5038.6315 
     600    292.42493   -1716.9211   -1700.6297    3300.1595     5040.807 
     700    299.28664   -1717.3522   -1700.6786    1806.8938    5047.2766 
     800    286.19597   -1716.5077   -1700.5634   -890.22974    5056.0334 
     900    288.31009   -1716.4328   -1700.3707   -1120.1589    5056.9995 
    1000    300.72035   -1716.8804   -1700.1269    2083.4398    5046.5815 
    1100    307.67179   -1716.9657   -1699.8249     5978.033    5035.0845 
    1200    298.81948   -1716.2029   -1699.5553      5063.76    5039.0306 
    1300    304.08425   -1716.2429    -1699.302    2170.8318      5048.69 
    1400    299.43643   -1715.7485   -1699.0666    -1667.811    5059.9095 
    1500    311.87436   -1716.2478   -1698.8729   -1551.1993    5059.2717 
    1600    319.28899   -1716.5224   -1698.7344    3484.6481    5043.7785 
    1700    296.58126   -1715.1188   -1698.5959    8610.6323    5028.9217 
    1800     294.6114   -1715.0098   -1698.5967    5615.8208    5036.0032 
    1900    307.80301    -1715.902   -1698.7539    470.22233    5055.6701 
    2000    293.44389   -1715.3808   -1699.0327   -4022.2982    5069.0528 
    2100    303.29996    -1716.379   -1699.4818   -2502.0848    5061.5771 
    2200    300.44816   -1716.6561   -1699.9178    4204.5131    5041.2471 
    2300     294.5385   -1716.6398   -1700.2307    7039.7672    5030.0221 
    2400    285.19445   -1716.3571   -1700.4686    5705.2378    5036.1234 
    2500    279.34931   -1716.1117   -1700.5489    202.57851     5053.348 
    2600    290.47373   -1716.5777   -1700.3951   -2161.6242     5061.514 
    2700    282.89945   -1715.7914   -1700.0307    346.61872    5054.1144 
    2800    300.85678   -1716.1726   -1699.4116    3940.4506    5043.1884 
    2900    302.70758   -1715.6449   -1698.7808     4966.596    5040.8365 
    3000    313.27569   -1715.8424   -1698.3894    1246.1149    5050.7477 
    3100    310.62259   -1715.5457   -1698.2405     1493.799    5052.3347 
    3200    290.48223   -1714.4751    -1698.292    235.98174    5055.7494 
    3300    310.53289   -1715.7622    -1698.462    813.77803    5052.7318 
    3400       306.83   -1715.7849   -1698.6911    3390.5354    5045.8996 
    3500    315.40319   -1716.5295    -1698.958    3083.9332    5044.8702 
    3600    307.62406   -1716.3379   -1699.1999    2941.9342    5044.4641 
    3700    296.84405   -1715.9207   -1699.3832    2094.8469    5049.9113 
    3800    305.21919   -1716.4938   -1699.4897   -803.01771    5058.1452 
    3900    314.17759   -1717.0338   -1699.5306   -876.98782    5055.7679 
    4000    306.49686    -1716.601   -1699.5258    2707.3632    5044.7881 
    4100    314.26622     -1717.01   -1699.5019    3305.3942    5043.3222 
    4200    296.38943   -1715.9833   -1699.4711    2334.0368    5048.2212 
    4300    307.15771   -1716.5446   -1699.4325    1814.1989    5049.9903 
    4400    291.95916   -1715.6448   -1699.3794     1430.059     5048.704 
    4500    297.56685   -1715.8944   -1699.3166    3474.6402    5044.7072 
    4600    296.24024   -1715.7448    -1699.241    3233.6936    5045.7309 
    4700      280.704   -1714.7464   -1699.1081    1373.2826    5052.6055 
    4800    313.19341   -1716.2444    -1698.796    625.02252     5053.147 
    4900    305.09159   -1715.3287   -1698.3317    2506.1478    5046.9658 
    5000      298.553   -1714.5434   -1697.9106    4237.2175    5043.6598 
    5100    307.66672   -1714.8347   -1697.6943    2491.0263    5049.2466 
    5200    319.84013    -1715.542   -1697.7234    2165.5385    5050.5344 
    5300    305.23495   -1715.0482   -1698.0432    1009.6444    5052.7687 
    5400    295.91195   -1715.1099   -1698.6243    623.44167    5052.5629 
    5500    301.71297   -1716.0737   -1699.2649    460.03986    5052.6725 
    5600      303.711    -1716.652    -1699.732    964.69318    5050.8168 
    5700    295.69431   -1716.4557   -1699.9822    2757.3735    5043.2854 
    5800    284.76008   -1715.9349   -1700.0706    5438.1876    5036.0064 
    5900    293.12841   -1716.3871   -1700.0566    4702.4318    5039.6674 
    6000    298.74881   -1716.5908   -1699.9471   -92.842948    5053.9944 
    6100    294.15409   -1716.0822   -1699.6945   -3631.4142    5065.2255 
    6200    293.52877   -1715.6738   -1699.3209   -2399.5636    5062.9518 
    6300    300.93427   -1715.4821   -1698.7168    4774.2404    5040.8474 
    6400    332.44353   -1716.4023   -1697.8815    9194.6564     5026.042 
    6500    325.65538   -1715.4473   -1697.3047    6447.6123    5036.5377 
    6600    330.87744   -1715.5511   -1697.1175   -2063.8802    5062.0938 
    6700    318.87102   -1714.9872   -1697.2225   -2769.4009    5067.2129 
    6800    318.26878   -1715.2819   -1697.5507   -1150.5837     5060.213 
    6900    324.83087   -1715.9423   -1697.8456    4288.2803     5042.208 
    7000    309.96786   -1715.4126   -1698.1439    7357.8731    5034.2654 
    7100    308.70749   -1715.7478   -1698.5494    3777.5138    5044.8936 
    7200    295.47038   -1715.4042   -1698.9432   -1471.0039    5059.3632 
    7300     293.8377   -1715.7084   -1699.3383   -2857.3673    5063.0113 
    7400    302.80279   -1716.5616   -1699.6922    1331.1692    5049.5101 
    7500    302.66659   -1716.7759    -1699.914    7091.1281     5032.456 
    7600    284.20575   -1715.9181   -1700.0847    7072.6407    5031.8965 
    7700    292.12238   -1716.4816   -1700.2071     1321.864    5049.3544 
    7800     285.2362   -1716.0229   -1700.1321   -2661.8866    5063.2691 
    7900    285.99942   -1715.7981   -1699.8647    -2233.446    5060.1893 
    8000    293.58051   -1715.5292   -1699.1735    3883.9237    5041.3448 
    8100     311.7906   -1715.6975   -1698.3273    6767.9157    5032.4462 
    8200    312.98935   -1715.3066   -1697.8696    5536.5259    5039.3152 
    8300    290.98814   -1713.9689   -1697.7576    351.20428    5056.2369 
    8400    296.59066   -1714.3992   -1697.8758   -774.70705    5058.6063 
    8500    298.79415   -1714.8528   -1698.2066    421.25099    5054.1575 
    8600    315.16403   -1716.2412    -1698.683    2995.6505    5044.4177 
    8700    281.18519    -1714.834   -1699.1688    4650.7237    5041.2279 
    8800    306.49328   -1716.6081    -1699.533    2736.8255    5043.2892 
    8900    291.20303   -1715.9441   -1699.7208    1025.6956    5050.6368 
    9000    306.91233   -1716.8766   -1699.7782   -415.93755    5052.7707 
    9100    296.36403   -1716.2804   -1699.7696    1925.5774    5046.3573 
    9200    286.25199   -1715.6353   -1699.6879    3984.7952    5039.7417 
    9300    303.78321   -1716.5198   -1699.5957    3309.6461     5043.293 
    9400    306.34235    -1716.545   -1699.4783   -347.43097    5052.0148 
    9500    318.63025   -1717.0554   -1699.3042    233.68513     5052.794 
    9600    294.13496   -1715.4502   -1699.0636    1976.8464    5049.5945 
    9700    319.14736   -1716.4014   -1698.6214    5289.3152    5039.5669 
    9800    307.61558   -1715.0274   -1697.8898    5932.2296     5036.853 
    9900    317.47496    -1714.904   -1697.2171    438.59827    5053.1064 
   10000    319.83451   -1714.6765   -1696.8582   -4654.0234    5069.8251 
Loop time of 3.13384 on 4 procs for 10000 steps with 432 atoms

Performance: 551.399 ns/day, 0.044 hours/ns, 3190.968 timesteps/s
99.1% CPU use with 4 MPI tasks x 1 OpenMP threads

MPI task timing breakdown:
Section |  min time  |  avg time  |  max time  |%varavg| %total
---------------------------------------------------------------
Pair    | 2.39       | 2.5011     | 2.5884     |   4.5 | 79.81
Neigh   | 0.00021291 | 0.00022739 | 0.0002389  |   0.0 |  0.01
Comm    | 0.36236    | 0.44771    | 0.55498    |  10.3 | 14.29
Output  | 0.019558   | 0.019664   | 0.019951   |   0.1 |  0.63
Modify  | 0.12788    | 0.13027    | 0.13225    |   0.5 |  4.16
Other   |            | 0.0349     |            |       |  1.11

Nlocal:    108 ave 113 max 101 min
Histogram: 1 0 0 0 0 1 0 0 1 1
Nghost:    1559.75 ave 1571 max 1545 min
Histogram: 1 0 0 0 0 0 2 0 0 1
Neighs:    7480 ave 7949 max 7043 min
Histogram: 1 0 1 0 0 0 1 0 0 1

Total # of neighbors = 29920
Ave neighs/atom = 69.2593
Neighbor list builds = 1
Dangerous builds = 0
----- Production run -----
Setting up Verlet run ...
  Unit style    : metal
  Current step  : 10000
  Time step     : 0.002
Per MPI rank memory allocation (min/avg/max) = 4.269 | 4.269 | 4.269 Mbytes
Step Temp PotEng TotEng Press Volume Pxx Pyy Pzz v_my_lx f_1 f_2 f_3 f_4 f_5 
   10000    319.83451   -1714.6765   -1696.8582   -4654.0234    5069.8251   -4361.2686   -4670.8802   -4929.9213    2.8631652            0            0            0            0            0 
   10100     320.3007   -1714.8006   -1696.9562   -900.51687    5060.4198    247.83656   -1885.0112    -1064.376    2.8613936     5051.546    320.97193   -1696.8581    1235.0269    2.8597171 
   10200     325.1041    -1715.513   -1697.4011    5162.3338    5037.5919    5111.5831     5699.104    4676.3144    2.8570844    5050.3289    319.44737   -1696.9975    1646.8943    2.8594877 
   10300     320.7149   -1715.9287   -1698.0613    10844.628    5020.3511    10910.413    10679.831     10943.64    2.8538213    5048.7589     317.7565   -1697.2526    2084.8519    2.8591908 
   10400    311.31399   -1716.0462   -1698.7026    5783.7367    5036.2508    5296.9517    6888.0472    5166.2113    2.8568309    5047.6745    314.94591   -1697.5482    2307.2828    2.8589857 
   10500     303.4878   -1715.9387    -1699.031   -3140.3074    5064.4388   -3508.4499   -3777.7391   -2134.7332    2.8621509    5047.7416    312.98127   -1697.8122    2190.2542    2.8589984 
   10600    284.78053     -1715.08   -1699.2146   -6343.6498    5072.5455   -6450.6088   -5599.3623   -6980.9784    2.8636772    5048.0887    311.24472   -1698.0295    1979.4578    2.8590637 
   10700    300.00995   -1716.1087   -1699.3948     1381.736    5049.9077    1164.4039    1551.4994    1429.3046    2.8594109    5048.2227    309.66449   -1698.2105    1895.5956    2.8590891 
   10800    295.66375    -1715.979   -1699.5072    7281.0278    5029.4326    7258.1139    6922.8744    7662.0951    2.8555411    5047.9168    308.15795   -1698.3655    1939.4801    2.8590315 
   10900    296.03426   -1716.1142   -1699.6218     7889.592    5027.1742    7889.3137     8174.396    7605.0664    2.8551136    5047.4571    307.02102    -1698.502    2065.4488    2.8589447 
   11000    292.78773   -1716.0962   -1699.7846    3734.7177    5043.0186    3743.1307     3618.149    3842.8733      2.85811     5047.241    306.03144   -1698.6234    2111.2247    2.8589039 
   11100    292.61006   -1716.1503   -1699.8486   -3844.0718    5065.1024   -2998.8197   -4021.0872   -4512.3085    2.8622759    5047.3821    305.01404   -1698.7315     2055.403    2.8589307 
   11200     305.8184   -1716.8786   -1699.8411   -1005.0802    5057.6495   -965.02008   -1521.4674    -528.7531    2.8608713    5047.5583    304.31879    -1698.824    1979.5019     2.858964 
   11300    290.11697   -1715.9063   -1699.7435    1645.6436    5045.4256    1527.6731    1573.7305    1835.5272    2.8585646    5047.6124    303.63852   -1698.8984    1962.0815    2.8589744 
   11400    307.35077   -1716.5716   -1699.4487    6218.9165    5033.2593    6605.5038    5901.8518    6149.3939    2.8562651     5047.486    303.39063   -1698.9499    1995.3924    2.8589507 
   11500    303.84829   -1715.9584   -1699.0307    6105.6683    5035.1745    5874.2421    5795.1879     6647.575    2.8566274    5047.3532    303.04695   -1698.9712    2031.4648    2.8589257 
   11600    298.62401   -1715.2148   -1698.5781    1485.1783    5049.8222    1031.9079    917.25214    2506.3748    2.8593947    5047.3595     303.1303   -1698.9609    2050.6418     2.858927 
   11700    297.67443   -1714.7403   -1698.1565   -926.02495    5059.0828   -455.01931   -1298.6596   -1024.3959    2.8611416    5047.4968    303.45437   -1698.9245    2027.0301     2.858953 
   11800    325.65478   -1716.0556    -1697.913   -1793.3949    5059.1288   -551.93487   -2734.3469    -2093.903    2.8611502    5047.7084    303.90893   -1698.8736    1993.6881    2.8589931 
   11900    323.53341   -1715.8945   -1697.8701    2977.2217    5047.0185    3212.2726     3446.038    2273.3545    2.8588654    5047.8304    304.43056   -1698.8206    1982.6769    2.8590162 
   12000    320.68293   -1715.9524   -1698.0868     4893.663     5039.044    4963.4161    4353.8978    5363.6752    2.8573589     5047.783    304.75732   -1698.7774    2004.4483    2.8590073 
   12100    292.28673   -1714.9794   -1698.6958    3922.7122    5042.0504     3691.319    3688.2384    4388.5792    2.8579271    5047.7395    304.98878   -1698.7581    2024.6874    2.8589992 
   12200    307.08947   -1716.6492   -1699.5409    309.83836    5053.0784    286.87384   -183.41706    826.05829    2.8600092    5047.7087    304.86624   -1698.7745    2027.4213    2.8589935 
   12300    287.80479   -1716.1267   -1700.0928   -935.35082    5056.6854   -686.65206   -1510.5882    -608.8122    2.8606895     5047.748    304.40299   -1698.8211    1998.6709     2.859001 
   12400    293.88865   -1716.6642   -1700.2913    1976.2819    5046.9889    2689.5991    1914.5941    1324.6526    2.8588599    5047.7432    303.92899    -1698.879    1989.9829    2.8590001 
   12500    305.17474   -1717.2808   -1700.2791     5026.371    5038.7683    5321.7033    4649.8267    5107.5829    2.8573068    5047.6726    303.47712   -1698.9359    2003.0369    2.8589868 
   12600    293.26901   -1716.5117   -1700.1734    3488.4982    5042.6107    3550.1485    3558.9344    3356.4116    2.8580329    5047.5879     303.0344   -1698.9861    2019.8453    2.8589709 
   12700    291.56225   -1716.1976   -1699.9543     2148.559    5048.5842    2704.3322    1959.2477     1782.097     2.859161    5047.5931    302.74343   -1699.0264    2013.6941     2.858972 
   12800    293.74979   -1716.0207   -1699.6556   -1984.1062     5058.395   -2499.7786   -2041.2655   -1411.2746    2.8610119    5047.6008     302.4986   -1699.0542    2007.0078    2.8589735 
   12900    312.91368   -1716.7108    -1699.278    890.09805    5051.5882    744.37338    830.68092    1095.2398     2.859728    5047.6187    302.39399   -1699.0683    1998.3624    2.8589769 
   13000    299.76087   -1715.5954   -1698.8954    2743.4054    5046.6496     1766.678    3185.3794    3278.1589    2.8587958    5047.6662    302.36028   -1699.0687    1995.6882    2.8589859 
   13100    300.16197   -1715.2771   -1698.5547    3417.1546     5046.233    2867.2492    3053.8859    4330.3287    2.8587171    5047.6899    302.47405   -1699.0575    2007.3199    2.8589905 
   13200    308.32933   -1715.4716   -1698.2942    1965.8327    5049.5913    1738.6186    2392.8695    1766.0101    2.8593511    5047.7213    302.61418   -1699.0375      2005.77    2.8589964 
   13300    309.94538   -1715.3733   -1698.1059    1088.8809    5052.8129    1596.2372    953.68912    716.71654    2.8599591    5047.7725    302.87466   -1699.0119    2004.4437    2.8590062 
   13400     328.6264   -1716.2617   -1697.9535    1514.5773    5050.9965    1041.9094    2487.1604    1014.6619    2.8596164    5047.8308    303.10773   -1698.9828     2001.458    2.8590172 
   13500     305.6023   -1714.9445   -1697.9191    657.80619    5051.8023    601.12841    401.68759    970.60256    2.8597684    5047.9016    303.38004   -1698.9524    1999.5201    2.8590306 
   13600     298.7362   -1714.7784   -1698.1355     3999.645    5046.5493    3660.4338    4253.4466    4085.0546    2.8587769    5047.9614    303.64625   -1698.9261    1995.2554    2.8590419 
   13700    308.68671    -1715.813   -1698.6157    3560.1711    5043.9851    3152.6507    3874.7495     3653.113    2.8582926     5047.983    303.75075   -1698.9109    2002.1331     2.859046 
   13800    304.11775   -1716.1638    -1699.221     2052.233    5047.3584    1680.9019     1789.977      2685.82    2.8589296    5047.9972    303.73738   -1698.9113    2009.2483    2.8590488 
   13900    299.57859   -1716.4298   -1699.7399    2135.1265    5049.6656    1839.1954     2079.568    2486.6161    2.8593652    5048.0314    303.60526   -1698.9262    2006.8369    2.8590553 
   14000    284.18036   -1715.9496   -1700.1176    -1000.511    5056.6038   -1360.3456   -69.883816   -1571.3035    2.8606741    5048.0534    303.39655   -1698.9515    2002.9928    2.8590594 
   14100    273.57051   -1715.5776   -1700.3367     287.8175    5054.9288    147.70189    31.638101    684.11253    2.8603583    5048.0775    303.10765   -1698.9828    1995.5088     2.859064 
   14200    304.34936   -1717.3544   -1700.3988    2826.5153    5044.6773    3559.3375    3353.2109    1566.9974    2.8584233    5048.0786     302.8253    -1699.016    1992.7864    2.8590642 
   14300    298.59035   -1716.9286   -1700.2938    3963.1513    5039.4257    3626.8547      3843.03    4419.5692    2.8574311    5048.0359    302.59002   -1699.0474     2001.559    2.8590562 
   14400    287.10327   -1716.0207   -1700.0259    4161.1162    5041.8154    3999.7813    3431.1692    5052.3981    2.8578827    5047.9885    302.31599   -1699.0732    2011.0664    2.8590473 
   14500    297.66311   -1716.1015   -1699.5184   -786.08985    5055.6523   -809.23708   -1471.9257   -77.106709    2.8604947    5047.9833    302.23705    -1699.089    2009.8162    2.8590463 
   14600    312.35106   -1716.2678   -1698.8664   -4044.8675     5065.479     -4154.27   -3998.2146   -3982.1178    2.8623468    5048.0218    302.22214   -1699.0911    1999.2734    2.8590536 
   14700    305.53505   -1715.3743   -1698.3526    532.86982    5054.1305    449.24862    424.64342    724.71742    2.8602077    5048.0889    302.26675   -1699.0802    1982.7916    2.8590662 
   14800    310.53057   -1715.3537   -1698.0537     6496.949    5034.9586     6378.307    5989.1942    7123.3458    2.8565865    5048.1081    302.43988   -1699.0613    1986.7976    2.8590698 
   14900    315.67994   -1715.5942   -1698.0074    9012.8804    5028.0654    9742.1837      8426.27    8870.1875    2.8552823    5048.0721     302.6213   -1699.0404    2007.2419     2.859063 
   15000    309.98739    -1715.518   -1698.2483    1711.6861    5049.6156    865.56237    2404.9045    1864.5915    2.8593557    5048.0471    302.83024    -1699.022    2022.6649    2.8590582 
   15100    318.67418     -1716.21   -1698.4563   -4758.8748    5069.8505   -4930.4729   -4315.4308   -5030.7209      2.86317    5048.1178    302.89569   -1699.0086     2006.506    2.8590715 
   15200    305.21351   -1715.7253   -1698.7216   -3744.8415    5066.6362   -3375.3478   -3904.3663   -3954.8105    2.8625648    5048.1906    302.94495   -1699.0004    1990.6623    2.8590852 
   15300    300.15668   -1715.6663   -1698.9442    4227.9868    5043.9085    2763.7727    4866.5592    5053.6285    2.8582781    5048.2234    302.97109   -1698.9972    1984.6257    2.8590914 
   15400    304.04565   -1716.0045   -1699.0657    7742.7489    5029.0218    7172.2605    8133.3956    7922.5906    2.8554633    5048.1934    302.98636   -1698.9975    1996.9691    2.8590857 
   15500    305.69381   -1716.2673   -1699.2368    6018.8555    5036.3129    7234.7527    5180.8988     5640.915    2.8568426    5048.1387     302.9534   -1699.0007    2013.0282    2.8590754 
   15600    292.57803   -1715.6854   -1699.3855   -265.82852    5055.4572    290.20108   -544.94786    -542.7388    2.8604579    5048.1359    302.90995   -1699.0063    2013.4061    2.8590748 
[...]
   10300    1115.2728   -1659.8504   -1597.7173   -3148.1681     5217.069   -4977.1762   -2875.2991   -1592.0289    2.8906196    5164.5018    1175.8948   -1595.9369    10593.792    2.8808632 
   10400    1181.1578   -1662.8936   -1597.0899    21699.503    5118.7982    19842.242    26279.216     18977.05    2.8723548    5166.2618    1169.0715   -1596.3439     9968.772    2.8811901 
   10500    1121.2321   -1659.4529   -1596.9878   -823.99509    5215.2849    1542.8927   -2336.0805   -1678.7975    2.8902901    5167.0248    1167.5778   -1596.5127    9841.7007    2.8813322 
   10600    1176.3149   -1660.5126   -1594.9788    18997.917    5137.0462    19394.945     20725.65    16873.158     2.875764    5167.1864    1168.7178   -1596.4354      9882.73    2.8813629 
   10700    1223.9876   -1661.3362   -1593.1465    1585.9398    5204.4196   -1576.6651    2954.3919    3380.0926    2.8882815    5170.1221    1171.2338   -1596.1179    9321.2462    2.8819088 
   10800    1242.9325   -1659.9643   -1590.7192     9536.204    5169.4133    7052.7992    11855.123    9700.6902    2.8817911    5169.7023    1175.5618    -1595.573    9751.8237    2.8818321 
   10900    1248.0629   -1658.9198   -1589.3889     4322.516    5190.4494    2018.2347    4502.7785    6446.5349    2.8856948    5172.5908    1179.3749   -1594.9589     9290.615    2.8823693 
   11000    1280.1256   -1660.1228   -1588.8056    8381.3493    5185.4296    7665.6826    8886.6321    8591.7331    2.8847643    5172.2675     1186.542   -1594.3513    9628.8556    2.8823103 
   11100    1257.3033   -1658.9367    -1588.891    9825.6343    5182.2203    8512.1971    9313.2217    11651.484     2.884169    5175.0728    1189.9312   -1593.8558    9181.6476    2.8828313 
   11200     1195.148   -1656.0999   -1589.5168    6404.9233    5195.9746    4909.9597    8457.9909    5846.8193    2.8867184    5174.7852    1193.2152   -1593.4557    9468.8033    2.8827787 
   11300    1164.7969   -1655.1779   -1590.2858    13640.483    5164.6687    14525.727    14396.064    11999.657    2.8809092    5176.4727    1194.9893   -1593.1869    9175.0775    2.8830922 
   11400    1218.4682   -1659.6438   -1591.7616    2041.2132    5201.8656    3188.5819    3365.0896   -430.03176     2.887809    5175.9509    1196.8818   -1593.0243    9386.7271    2.8829958 
   11500    1162.8192   -1657.6812   -1592.8992    17255.759    5152.4742    17070.048    18668.761    16028.468      2.87864    5176.5227    1197.2509   -1592.9824     9256.688    2.8831023 
   11600    1238.1012   -1663.6273   -1594.6513    257.63177    5200.9102    1992.8671   -80.147326   -1139.8244    2.8876321    5176.6972    1196.9001   -1593.0351    9208.1191     2.883135 
   11700    1210.7653   -1663.1867   -1595.7336    16129.142    5144.1852    15333.158    13523.134    19531.136    2.8770955    5175.9392    1196.3807   -1593.1606     9306.068    2.8829944 
   11800    1142.7999   -1661.2584   -1597.5917    4725.4286    5187.4141     6717.852    4583.8457    2874.5879    2.8851322    5176.2616    1194.5355   -1593.3591    9104.4896    2.8830545 
   11900    1087.7517   -1660.9795   -1600.3797    13721.347    5157.9311    15832.907    12175.195     13155.94    2.8796559    5174.9017     1192.209   -1593.6367    9348.3941    2.8828019 
   12000    1103.5398   -1665.9747   -1604.4953    9663.7349    5154.9362    10655.417    7748.8951    10586.893    2.8790984     5175.263    1188.0864   -1594.0904    9070.2703    2.8828693 
   12100    1058.3025   -1665.2308   -1606.2715    6563.4037    5169.3555    5540.4833    6885.3227    7264.4052    2.8817804    5173.3582    1183.9305   -1594.6294     9338.216     2.882515 
   12200    1144.3267     -1669.27   -1605.5183    18226.938    5126.8249    20360.945    16128.704    18191.166    2.8738554    5173.3244    1179.7957   -1595.1534    9103.7852    2.8825089 
   12300    1074.0884   -1663.8611   -1604.0224    284.80462    5194.1648   -20.470671    1248.0151   -373.13054    2.8863832     5172.198     1176.681   -1595.5733     9218.253    2.8822993 
   12400    1160.9274   -1665.6103   -1600.9337    20356.891    5124.0563    22503.666    18977.562    19589.446     2.873338    5171.8541     1174.357   -1595.8648    9176.0621    2.8822354 
   12500    1142.8282   -1662.6974   -1599.0291     471.4248    5199.5101    731.99269    3321.4727    -2639.191     2.887373    5171.6559    1172.9824   -1596.0307    9135.1321    2.8821986 
   12600     1254.977   -1666.7486   -1596.8324    16589.476    5143.9869     16996.16    18218.097     14554.17    2.8770586    5171.0506    1172.9737   -1596.0991    9249.1995    2.8820861 
   12700    1194.2275    -1661.995   -1595.4633    3273.7703    5191.4779    2732.0066    3486.6363    3602.6681    2.8858854    5171.9729     1172.266   -1596.1062    9032.2292    2.8822573 
   12800     1229.031   -1662.2399   -1593.7692     10616.15    5172.9286    9481.7526    11811.617    10555.079    2.8824442    5171.0884      1173.24    -1596.042    9292.8812    2.8820929 
   12900    1215.7189   -1659.9643   -1592.2352    11328.718    5171.7571     15130.12    8495.3095    10360.724    2.8822266    5172.3745    1173.7589   -1595.9414    9020.5798    2.8823315 
   13000    1209.5008    -1658.421   -1591.0384     3297.099    5197.3523    3228.9913    2338.3339    4323.9718    2.8869735    5171.9072    1175.3184   -1595.7898     9213.861    2.8822448 
   13100    1166.7438   -1654.8372   -1589.8366    17126.019    5156.6805    20222.909    16678.004    14477.143    2.8794231    5172.6321    1176.3383   -1595.6192    9081.8077    2.8823795 
   13200    1255.1668   -1659.4972   -1589.5704     1620.409    5199.5858    1471.4172    211.78117    3178.0286     2.887387    5172.4769    1177.8497   -1595.4312    9171.3241    2.8823508 
   13300     1197.737   -1655.9953    -1589.268    15916.902    5162.7921    17064.844    14328.979    16356.884    2.8805602    5172.7965    1179.6075   -1595.2482    9131.3745    2.8824104 
   13400    1213.0057   -1657.4649    -1589.887    6408.1096    5196.1275    5485.5579    6782.2819    6956.4892    2.8867467    5173.1748    1180.6191   -1595.0818     9105.743    2.8824808 
   13500    1207.2346   -1658.2325   -1590.9761    13625.644    5168.3362    16772.932    14898.368    9205.6313     2.881591    5173.2065    1181.8073   -1594.9451    9151.3173    2.8824869 
   13600     1222.685   -1661.5774   -1593.4602    8776.2883    5175.9339    6919.4087    8692.3033    10717.153    2.8830023    5173.5276    1182.4964   -1594.8688    9074.1419    2.8825467 
   13700    1227.2005   -1664.6797    -1596.311     4177.716    5183.0392    3082.0601    5866.0401    3585.0478    2.8843209    5173.3929    1182.1535   -1594.8692    9136.8369    2.8825219 
   13800    1211.3145   -1665.4522   -1597.9685    9911.3322    5153.9352    11078.325    10356.578    8299.0934    2.8789121    5173.4547    1181.6215   -1594.9331    9079.0418    2.8825336 
   13900     1113.847   -1660.7513   -1598.6976    6269.5513    5178.0365    4852.0327    5708.3776    8248.2435    2.8833926     5173.075    1180.7222   -1595.0216    9114.0112    2.8824632 
   14000    1164.7898   -1663.1269   -1598.2351    12685.883    5152.1839    14416.624    8168.2663    15472.758    2.8785859    5172.9106    1179.7833   -1595.1101    9106.1851    2.8824328 
   14100    1205.2616    -1664.395   -1597.2485    3808.2071    5182.1282     2431.447    5861.1514     3132.023    2.8841519    5172.7765    1179.0562    -1595.176    9103.8445     2.882408 
   14200    1186.2363   -1661.2676    -1595.181    13210.938    5152.0115     15265.91    11247.671    13119.231    2.8785538    5172.6175    1178.8259   -1595.2015    9109.7934    2.8823787 
   14300    1169.0579   -1658.6271   -1593.4975     5087.501    5190.9225    3590.4782    6250.5306     5421.494    2.8857825    5172.7952    1178.7619    -1595.182    9065.9438    2.8824118 
   14400    1245.6041   -1661.4367   -1592.0427     11827.52    5166.2128    12048.018    13067.866    10366.675    2.8811963    5172.5908     1179.324   -1595.1232    9136.8308    2.8823739 
   14500    1150.0436   -1655.6179   -1591.5477    8335.0926    5186.4977    8493.3777    8668.8725    7843.0277    2.8849623    5173.1358    1179.5642   -1595.0506    9033.2481    2.8824751 
   14600     1237.035   -1660.1882   -1591.2716    5459.8169    5185.8905    7478.1218    3980.6216    4920.7074    2.8848497    5172.8966    1180.3648   -1594.9667    9140.7487    2.8824308 
   14700    1199.6792   -1657.8004   -1590.9649      14983.9    5165.6612    16687.377    14939.194    13325.127    2.8810937    5173.4302    1180.7889   -1594.8867    9043.0894    2.8825298 
   14800    1201.1323   -1658.1613   -1591.2449    1923.5037    5206.5616    1675.9829    1384.5457    2709.9825    2.8886777    5173.3274     1181.414   -1594.8053    9113.9216    2.8825108 
   14900    1213.7506   -1658.6983   -1591.0789    19313.529    5149.4729    20903.965    19413.806    17622.815     2.878081     5173.633    1181.9411   -1594.7326     9073.035    2.8825675 
   15000    1226.3644   -1660.0034   -1591.6813   -22.619022    5212.2949    749.02751   -898.56552    81.680947    2.8897376    5173.7913    1182.1821   -1594.6664    9065.5559     2.882597 
   15100    1184.9202   -1657.8278   -1591.8146    18710.607    5147.9849    20990.993    14085.173    21055.656    2.8778037     5173.733    1182.7568   -1594.6079    9115.3723    2.8825861 
   15200    1114.3112   -1655.2964   -1593.2169    5327.9268    5207.7343    5537.4591    4314.3738    6131.9476    2.8888945    5174.1361    1183.0979   -1594.5688    9034.1125    2.8826609 
   15300    1174.2386   -1660.0106   -1594.5925    15108.192    5152.5221    11812.463    15590.353    17921.761    2.8786489    5173.8394    1183.1601   -1594.5527    9127.8535    2.8826058 
   15400    1130.2988   -1659.8721   -1596.9018    9309.2066    5174.0717    8814.1365    8840.7007    10272.783    2.8826565    5174.2537    1182.8127   -1594.5772    9002.9824    2.8826827 
   15500      1153.55   -1663.0211   -1598.7556    7193.8784    5174.8131    7321.1743    8379.4196    5881.0413    2.8827942    5173.6255    1182.5419   -1594.6316    9140.2654    2.8825658 
   15600    1157.3242    -1664.049   -1599.5732    17010.605    5132.2202    17250.804    17435.127    16345.884    2.8748632     5173.904    1181.6129    -1594.717    9014.6293    2.8826175 
   15700    1091.7002   -1660.9814   -1600.1616   -205.54092    5206.5353   -1298.5698    851.18699   -169.23994    2.8886728    5173.3453    1180.8952   -1594.8057    9119.1117    2.8825135 
   15800    1237.2731   -1667.4459   -1598.5161    20737.622      5118.24    21533.888    20616.684    20062.296    2.8722504    5173.4755    1180.1674   -1594.8886    9045.5469    2.8825375 
   15900    1128.9785   -1659.4011   -1596.5045   -4348.2256     5217.946   -3465.8823   -5387.5763   -4191.2182    2.8907816    5173.2605    1179.8808   -1594.9355    9076.1483    2.8824974 
   16000    1226.0395   -1660.9432   -1592.6392    19280.416     5138.271    21673.306    15190.359    20977.583    2.8759925    5173.2627    1180.0256   -1594.9289    9084.7833    2.8824978 
   16100    1203.8701   -1658.2581   -1591.1892    1563.7681    5208.7776    3698.6538   -850.52195    1843.1724    2.8890875    5173.5034    1180.4133   -1594.8791       9038.4    2.8825424 
   16200    1190.4663   -1656.6809   -1590.3587    13667.841    5168.9695    13372.247    13561.608    14069.667    2.8817087    5173.3829    1181.1626   -1594.8095     9110.376    2.8825201 
   16300    1228.8488   -1658.7601   -1590.2996    7524.2762    5187.0061    6825.7815    5744.4744    10002.573    2.8850566    5173.8979    1181.5578     -1594.74    9018.6904    2.8826156 
   16400    1290.4073   -1662.3237   -1590.4336    7046.2747     5187.887    7366.3898    6654.4385    7117.9958    2.8852199    5173.6795    1182.3615   -1594.6679    9107.2815    2.8825751 
   16500     1204.858   -1658.0386   -1590.9147    11039.023    5170.2296    10085.039    12017.515    11014.515    2.8819428    5174.1654    1182.6693    -1594.608    9021.6333    2.8826653 
   16600    1237.5801   -1660.9047   -1591.9577    673.42515    5196.6445    715.49103    1070.4438    234.34061    2.8868425     5173.914    1183.3226   -1594.5565    9097.3217    2.8826186 
   16700    1195.5016   -1659.5387   -1592.9359    15297.463    5151.1522    16107.928    15569.815    14214.645    2.8783938    5174.1651     1183.403   -1594.5262    9041.3948    2.8826653 
   16800     1160.942   -1659.5609   -1594.8835    1323.7676    5199.7348   -101.38206    1158.8314    2913.8534    2.8874146     5174.006    1183.5984   -1594.5161     9077.263    2.8826358 
   16900    1160.3126   -1660.9706   -1596.3282    17635.079    5139.0461    18071.853    17033.326    17800.058    2.8761371    5174.0572    1183.3909   -1594.5331    9054.3009    2.8826453 
   17000    1186.3136   -1664.3548   -1598.2639    2046.2959    5191.2783    2008.0139    3192.8646    938.00917    2.8858484    5173.9632    1183.0371   -1594.5735    9050.4327    2.8826279 
   17100    1119.1626   -1661.5305   -1599.1807    14803.748     5146.635    12409.167    16934.217    15067.861    2.8775522      5173.79    1182.4421   -1594.6323    9070.0395    2.8825958 
   17200    1132.8467   -1663.0447   -1599.9326    5298.6352     5176.064    3671.5913    6722.8406    5501.4736    2.8830265    5173.7488    1181.8451   -1594.7023     9043.221    2.8825882 
   17300     1151.734   -1663.6293   -1599.4649    10073.184    5157.4306    10007.315    8600.8178    11611.419    2.8795628    5173.4909    1181.3283   -1594.7713    9073.9869    2.8825404 
   17400    1174.7509   -1662.7578   -1597.3111    7714.0807     5173.449    8585.0589    7584.2261     6972.957    2.8825409    5173.5297    1180.7183   -1594.8234    9041.9269    2.8825477 
   17500    1148.0052   -1657.7299   -1593.7732    11115.248    5171.0253    13920.626    9891.9169    9533.2013    2.8820907    5173.3617    1180.5952   -1594.8315    9072.6185    2.8825166 
   17600    1121.8123    -1653.674   -1591.1765    11221.551    5178.1699    10872.175    12715.465    10077.013    2.8834174    5173.5345    1180.6487   -1594.7996    9043.3922    2.8825487 
   17700    1205.1997   -1656.8253   -1589.6823    9436.0736    5184.7057    9915.6883    7101.5257    11291.007      2.88463    5173.5207    1181.2214   -1594.7408    9065.9425    2.8825463 
   17800    1260.1511   -1659.0073   -1588.8029    10201.552      5179.64    11089.451    9371.6569    10143.548    2.8836903    5173.7673     1181.631   -1594.6706    9040.0182    2.8825921 
   17900    1225.8607   -1656.8343   -1588.5403    6374.8061     5194.467    5564.6729     7254.693    6305.0524    2.8864392    5173.8226    1182.3539   -1594.5932    9063.5972    2.8826025 
   18000    1229.5049   -1657.1177   -1588.6206    12148.605    5175.5842    11512.714    13438.848    11494.254    2.8829374    5174.0837    1182.9152   -1594.5181     9038.379     2.882651 
   18100    1245.5469   -1658.9045   -1589.5137    4246.5236    5197.1393    4889.4288    4684.7337    3165.4083    2.8869341     5174.133    1183.4118   -1594.4497    9054.2118    2.8826602 
   18200    1204.4261   -1657.7891   -1590.6892    15857.979    5154.7537    17063.053    17241.414    13269.469    2.8790645    5174.2407    1183.7394   -1594.3969    9044.6432    2.8826803 
   18300    1183.2303   -1659.0209   -1593.1018    259.61621     5212.584   -1296.5417    3289.5503     -1214.16     2.889791     5174.298    1184.0087   -1594.3668    9043.4327    2.8826909 
   18400    1195.8885   -1661.3779   -1594.7536    17976.547    5137.7097    18244.455    15893.695    19791.491    2.8758878    5174.2273    1184.0928   -1594.3621    9062.3259    2.8826778 
   18500    1158.2342   -1661.4217   -1596.8952   -2209.9993    5205.9461   -3995.5412   -2603.5434   -30.913224    2.8885639    5174.3616    1183.9187   -1594.3814    9017.1128    2.8827027 
   18600    1124.9541   -1660.1911   -1597.5186    16598.167    5144.1545    15774.203    15524.892    18495.406    2.8770898    5174.0331    1183.7691   -1594.4126    9092.2367    2.8826416 
   18700    1224.8559   -1666.0821    -1597.844    3835.9379    5180.0557    5880.6886    2796.3231     2830.802    2.8837674    5174.3328    1183.2568   -1594.4526     8996.834    2.8826971 
   18800    1146.2349    -1661.028     -1597.17    6925.3113    5175.2065    4607.7902      6995.96    9172.1837    2.8828673    5173.8819    1183.0715   -1594.4833    9102.1382    2.8826132 
   18900    1183.1217   -1661.3151    -1595.402     18559.19    5140.6924     18110.75    17239.025    20327.795    2.8764442    5174.1944    1182.8199    -1594.506    9003.3053    2.8826711 
   19000    1152.1774   -1657.9578   -1593.7687   -3524.3575    5224.8216   -5366.2967   -3084.3674   -2122.4086    2.8920507    5173.9117    1182.8175   -1594.5048    9085.7527    2.8826185 
   19100    1272.3471   -1661.5471   -1590.6632     24438.62    5132.7874    25308.197    22091.578    25916.085    2.8749691    5174.1748    1182.9167   -1594.4812     9038.921    2.8826672 
   19200    1200.2467   -1656.4693   -1589.6022   -1730.9343    5229.0857   -3526.3589    -1328.729   -337.71504    2.8928373    5174.2667    1183.3322   -1594.4335    9043.8042    2.8826841 
   19300    1267.5075   -1659.4166   -1588.8024    17265.499    5146.9407    16432.649    20046.873    15316.975    2.8776091    5174.3036    1183.7708   -1594.3764    9058.6529     2.882691 
   19400    1181.5832   -1655.3114    -1589.484    2925.5336    5215.1325    4116.1544    4055.5932     604.8531    2.8902619    5174.5236     1184.174   -1594.3218    9032.0263    2.8827318 
   19500    1178.8147   -1655.4647   -1589.7916    15421.366    5165.6887    16774.388    13036.639    16453.071    2.8810989    5174.4995    1184.6843   -1594.2711    9067.8308    2.8827273 
   19600    1279.7944   -1662.1631   -1590.8643    5102.5599    5189.5429    3357.1565    4457.3891     7493.134    2.8855268    5174.7536    1185.0007   -1594.2309    9021.5351    2.8827745 
   19700    1225.1412   -1660.3413   -1592.0873     6399.696    5185.7715    5264.4244    7493.1883    6441.4753    2.8848277    5174.6489    1185.3017   -1594.2006    9067.6657    2.8827551 
   19800    1227.1968    -1661.718   -1593.3495    10552.368     5167.353    9358.7379    11685.371    10612.995    2.8814082    5174.8547     1185.313   -1594.1866    9028.1147    2.8827934 
   19900    1140.9178   -1658.4144   -1594.8525    4276.0777    5191.0215    2833.7458    3358.9342    6635.5532    2.8858009    5174.7363    1185.4254   -1594.1849    9058.1162    2.8827714 
----FINISHED: 40/40 ---- T=1200 P=9000 ---- n_pres=10
   20000    1231.9808   -1664.4052   -1595.7701    11504.885    5155.3785    9539.8121    11828.851    13145.991    2.8791808    5174.7856    1185.4114   -1594.1969    9038.7037    2.8827806 
Loop time of 3.67317 on 4 procs for 10000 steps with 432 atoms

Performance: 470.438 ns/day, 0.051 hours/ns, 2722.442 timesteps/s
99.3% CPU use with 4 MPI tasks x 1 OpenMP threads

MPI task timing breakdown:
Section |  min time  |  avg time  |  max time  |%varavg| %total
---------------------------------------------------------------
Pair    | 2.8433     | 2.9044     | 2.9499     |   2.3 | 79.07
Neigh   | 0.02012    | 0.020259   | 0.020409   |   0.1 |  0.55
Comm    | 0.3818     | 0.42722    | 0.48842    |   5.9 | 11.63
Output  | 0.020454   | 0.020589   | 0.020971   |   0.2 |  0.56
Modify  | 0.26441    | 0.26604    | 0.26764    |   0.2 |  7.24
Other   |            | 0.03469    |            |       |  0.94

Nlocal:    108 ave 112 max 104 min
Histogram: 1 1 0 0 0 0 0 0 1 1
Nghost:    1441.25 ave 1450 max 1425 min
Histogram: 1 0 0 0 0 0 1 0 0 2
Neighs:    7515.75 ave 7799 max 7101 min
Histogram: 1 0 0 0 1 0 0 0 0 2

Total # of neighbors = 30063
Ave neighs/atom = 69.5903
Neighbor list builds = 88
Dangerous builds = 0
System init for write_data ...
Total wall time: 0:04:32
