LAMMPS (7 Aug 2019)
OMP_NUM_THREADS environment is not set. Defaulting to 1 thread. (../comm.cpp:93)
  using 1 OpenMP thread(s) per MPI task
Reading data file ...
  orthogonal box = (0 0 0) to (17.1318 17.1318 17.1318)
  1 by 1 by 2 MPI processor grid
  reading atoms ...
  432 atoms
  read_data CPU = 0.000577927 secs
432 atoms in group iron
432 atoms in group Fe
Neighbor list info ...
  update every 1 steps, delay 10 steps, check yes
  max neighbors/atom: 2000, page size: 100000
  master list distance cutoff = 7.3
  ghost atom cutoff = 7.3
  binsize = 3.65, bins = 5 5 5
  1 neighbor lists, perpetual/occasional/extra = 1 0 0
  (1) pair eam/fs, perpetual
      attributes: half, newton on
      pair build: half/bin/atomonly/newton
      stencil: half/bin/3d/newton
      bin: standard
Setting up Verlet run ...
  Unit style    : metal
  Current step  : 0
  Time step     : 0.002
Per MPI rank memory allocation (min/avg/max) = 4.309 | 4.309 | 4.309 Mbytes
Step Temp PotEng TotEng Press Volume 
       0          300   -1733.6084    -1716.895    3573.6358    5028.1588 
     100    138.72723   -1724.0425   -1716.3139   -1114.7483    5040.2005 
     200    137.49028   -1723.1497     -1715.49    -615.8975    5040.3484 
     300      165.187   -1723.6312   -1714.4284    -107.5713    5039.7512 
     400    195.42259   -1724.1155   -1713.2283   -1338.9261    5042.4768 
     500    188.69351   -1722.4175   -1711.9052    2451.9959    5036.8762 
     600    200.29655   -1721.6515   -1710.4927    381.76252    5040.6351 
     700    212.89688   -1720.8469   -1708.9862   -3907.1704    5053.2668 
     800    219.27039   -1719.6722   -1707.4564   -2376.5004    5053.6816 
     900    237.40826   -1719.0962   -1705.8699    3567.2236    5039.3322 
    1000    237.51764   -1717.4999   -1704.2675     4727.846    5034.6787 
    1100    271.82258   -1717.9336   -1702.7901    1834.5421    5044.6028 
    1200    299.83956   -1717.9832   -1701.2788   -4812.4065     5064.889 
    1300    268.17473   -1714.8587   -1699.9184   -6546.8212    5075.5836 
    1400    307.38361   -1715.8967    -1698.772   -1096.9354    5058.5783 
    1500    323.51127    -1715.807   -1697.7838    8496.7072    5034.0092 
    1600    273.29437   -1712.3692   -1697.1437    3148.1042    5045.5888 
    1700    355.88319   -1716.6462   -1696.8195   -1990.9432    5060.8049 
    1800    329.16781   -1715.2305   -1696.8922   -3679.4218    5069.2621 
    1900     326.6766   -1715.5634   -1697.3639   -3563.5208    5067.2313 
    2000    322.82975   -1716.0996   -1698.1144    1444.1509    5052.3682 
    2100    283.18086   -1714.7363     -1698.96    3323.6552    5046.0786 
    2200    331.24953   -1718.2079   -1699.7536   -619.51878     5056.449 
    2300    304.73821   -1717.3642   -1700.3869    -4130.358    5066.0598 
    2400    271.62331   -1715.9861   -1700.8536   -1637.5225    5059.5796 
    2500    258.67281   -1715.5038   -1701.0928    1605.5219    5049.8111 
    2600    267.17854   -1715.9193   -1701.0345    5461.9998    5038.3693 
    2700    319.01441    -1718.526   -1700.7533    5062.6171    5038.7708 
    2800    295.90904   -1716.7349   -1700.2495   -4601.2049    5066.8663 
    2900    282.82748   -1715.3108   -1699.5542   -8940.8759    5081.8242 
    3000     308.9125   -1716.1598     -1698.95   -2664.3769    5066.0472 
    3100    309.10938   -1715.5778    -1698.357    4733.0685    5040.6493 
    3200    313.45893   -1715.3224   -1697.8592    10571.921    5023.2065 
    3300    316.83662   -1715.4215   -1697.7702    4210.4776    5041.5338 
    3400    318.66257   -1715.4842   -1697.7312   -6616.1502    5076.1714 
    3500    305.88186   -1715.0521    -1698.011   -7590.6896    5079.8938 
    3600     317.3486   -1716.1779   -1698.4981   -1012.2784    5058.7931 
    3700    297.76021   -1715.6433   -1699.0548    4637.4497    5041.1036 
    3800    283.75976   -1715.4346    -1699.626    2727.6753    5040.8436 
    3900    298.02872   -1716.7218   -1700.1183    577.28853    5052.8242 
    4000    271.19986   -1715.5626   -1700.4537   -3809.1824    5067.1595 
    4100    301.69001   -1717.4298   -1700.6223   -2358.4261    5060.9357 
    4200    294.44951   -1717.0029   -1700.5988    1358.5028    5048.6634 
    4300     290.9558   -1716.5822   -1700.3728    1808.7674    5045.6633 
    4400    294.78184   -1716.4014   -1699.9788    4182.6908    5042.3396 
    4500    307.41733   -1716.6409   -1699.5143     101.7945    5056.6035 
    4600    295.25261   -1715.4497   -1699.0008   -5898.2773    5072.4524 
    4700    303.23046   -1715.4403    -1698.547   -2955.5121    5063.5969 
    4800    332.29542   -1716.7341   -1698.2215    1145.6098    5050.7023 
    4900    321.50809   -1715.9484   -1698.0369    3251.2476    5047.3807 
    5000    298.64198   -1714.7095   -1698.0718    1602.2266    5050.6968 
    5100    293.45637   -1714.6687   -1698.3199    483.51517    5054.4495 
    5200    304.17567   -1715.6443   -1698.6983   -4644.9169    5069.7326 
    5300    310.86225   -1716.5096   -1699.1911   -5154.2315    5070.0973 
    5400    307.94911   -1716.8039   -1699.6477    2586.7398    5046.5962 
    5500    268.86519    -1714.975   -1699.9963    6974.6389    5031.9159 
    5600    288.59976   -1716.3564   -1700.2782    5411.7742    5035.6441 
    5700     290.1028   -1716.5631   -1700.4011   -2719.5632    5060.6799 
    5800    295.20216   -1716.7442   -1700.2982   -10850.465    5086.3054 
    5900    300.96651   -1716.9117   -1700.1445   -5898.8194    5073.6006 
    6000    280.63917   -1715.3608    -1699.726    3784.2377    5041.4166 
    6100    303.02431   -1716.0332   -1699.1514    9198.5719    5025.5462 
    6200    312.37037   -1716.0984   -1698.6959    3273.9526    5042.8731 
    6300    301.93174   -1715.2159    -1698.395   -1696.5917    5061.5849 
    6400    310.04361   -1715.4944   -1698.2215   -3917.6229    5066.8999 
    6500    291.67576   -1714.5185   -1698.2689   -1358.1877    5058.3318 
    6600    316.65851    -1716.101   -1698.4596    2386.7786     5047.529 
    6700    309.22709   -1716.1353   -1698.9079    1655.1051    5048.7811 
    6800    294.05346   -1716.1184   -1699.7363    94.110297    5051.9667 
    6900    291.04341   -1716.7582   -1700.5439    -1688.223    5057.8638 
    7000    286.88048   -1716.8364   -1700.8539   -3441.8027    5061.5335 
    7100    270.27461   -1715.9014   -1700.8441   -271.70343    5054.3518 
    7200    301.33587   -1717.4218   -1700.6341     3015.806    5043.3516 
    7300    289.70058   -1716.4543   -1700.3148    4157.9446    5039.7983 
    7400    293.51813   -1716.2721   -1699.9199   -47.703601     5052.763 
    7500    297.11655   -1716.0233   -1699.4706   -4531.3094    5068.3274 
    7600    293.40039   -1715.4541   -1699.1084   -3923.0863    5069.1374 
    7700     308.7987   -1716.0471   -1698.8435    522.91874    5052.2175 
    7800    305.62774   -1715.6916   -1698.6648    4891.2004    5039.7242 
    7900    295.61519    -1715.084    -1698.615    2051.3382     5047.964 
    8000    307.48802   -1715.8012   -1698.6707   -2304.7088    5062.4862 
    8100    301.24484   -1715.6272   -1698.8445   -3648.0353    5068.8547 
    8200    282.16873   -1715.0705   -1699.3505   -2492.9593     5062.169 
    8300    305.44117   -1717.3087   -1700.2922    3365.0314    5041.5306 
    8400    296.69468   -1717.5099   -1700.9807    6618.2322    5031.5987 
    8500    272.53488   -1716.4319   -1701.2487    1239.6596    5047.9029 
    8600    293.41295    -1717.461   -1701.1146   -6352.9057    5072.6915 
    8700    288.50156   -1716.8216   -1700.7488   -9348.2801    5080.3183 
    8800    294.12154   -1716.7146   -1700.3287   -489.31794    5054.8096 
    8900    305.55302   -1716.7912   -1699.7685     7343.921    5030.9176 
    9000    302.04995   -1716.1911   -1699.3636    8063.2667    5029.3643 
    9100    302.52245   -1716.0191   -1699.1653    389.74817    5052.1761 
    9200    302.75299   -1715.8203   -1698.9536   -6491.7409     5072.486 
    9300     312.6375   -1716.2994   -1698.8821   -4967.3023     5068.631 
    9400    309.23876    -1716.121    -1698.893   -193.79386    5055.0802 
    9500    312.10986   -1716.3324   -1698.9445    4087.8075     5041.552 
    9600    297.67681   -1715.6872   -1699.1033    3335.9251    5043.0968 
    9700    287.38359   -1715.4267   -1699.4162   -985.71803    5057.3614 
    9800    293.62015    -1716.371   -1700.0131   -2780.3162    5064.1479 
    9900    293.11954   -1717.1328   -1700.8028    -2363.786    5058.7689 
   10000    279.31349   -1716.8475   -1701.2866    3039.6985    5043.4028 
Loop time of 4.86501 on 2 procs for 10000 steps with 432 atoms

Performance: 355.189 ns/day, 0.068 hours/ns, 2055.493 timesteps/s
99.5% CPU use with 2 MPI tasks x 1 OpenMP threads

MPI task timing breakdown:
Section |  min time  |  avg time  |  max time  |%varavg| %total
---------------------------------------------------------------
Pair    | 4.2639     | 4.2913     | 4.3187     |   1.3 | 88.21
Neigh   | 0.00043201 | 0.00045002 | 0.00046802 |   0.0 |  0.01
Comm    | 0.33783    | 0.36315    | 0.38847    |   4.2 |  7.46
Output  | 0.029822   | 0.030024   | 0.030226   |   0.1 |  0.62
Modify  | 0.1408     | 0.14207    | 0.14334    |   0.3 |  2.92
Other   |            | 0.03804    |            |       |  0.78

Nlocal:    216 ave 218 max 214 min
Histogram: 1 0 0 0 0 0 0 0 0 1
Nghost:    2046 ave 2046 max 2046 min
Histogram: 2 0 0 0 0 0 0 0 0 0
Neighs:    14990 ave 15140 max 14840 min
Histogram: 1 0 0 0 0 0 0 0 0 1

Total # of neighbors = 29980
Ave neighs/atom = 69.3981
Neighbor list builds = 1
Dangerous builds = 0
Setting up Verlet run ...
  Unit style    : metal
  Current step  : 10000
  Time step     : 0.002
Per MPI rank memory allocation (min/avg/max) = 4.309 | 4.309 | 4.309 Mbytes
Step Temp PotEng TotEng Press Volume v_my_lx f_1 f_2 f_3 f_4 f_5 
   10000    279.31349   -1716.8475   -1701.2866    3039.6985    5043.4028    2.8581826            0            0            0            0            0 
   10100    278.36186     -1716.91   -1701.4021    2596.9834     5043.309    2.8581649     5051.163    281.94258    257.09092   -1701.3739    2.8596472 
   10200    290.48602   -1717.4059   -1701.2226   -518.36282    5051.8152    2.8597708    5050.9167    283.98167    279.60327   -1701.3554    2.8596008 
   10300    283.11988   -1716.5727   -1700.7997   -700.03975    5057.4147    2.8608271    5051.1429    283.54408    192.44827   -1701.2456    2.8596435 
   10400    296.67109   -1716.7889    -1700.261   -2942.9632    5060.7467    2.8614552    5051.8493    285.05609    28.672563   -1701.0663    2.8597768 
   10500    285.86644   -1715.7591   -1699.8332   -651.07138    5053.7105    2.8601284     5052.234    286.77185    -9.089191   -1700.8588    2.8598494 
   10600    304.47554   -1716.5296   -1699.5669    1901.9298    5046.5025     2.858768    5052.4396    288.49921   -23.212561   -1700.6634    2.8598882 
   10700    295.15416   -1715.8246   -1699.3812    2801.7564    5046.4041    2.8587494    5052.3602     290.0755    42.289149   -1700.4929    2.8598732 
   10800    312.95423   -1716.6927   -1699.2577    109.02366    5053.7193    2.8601301    5052.3316    291.15248    89.456319   -1700.3459    2.8598678 
   10900    300.88046   -1715.8995   -1699.1371   -2419.8825    5059.8867    2.8612931    5052.5156    292.19368    55.280516   -1700.2177    2.8599025 
   11000    295.23028    -1715.493   -1699.0454   -2493.0734    5061.8708     2.861667     5052.798    293.27665    11.548774   -1700.1045    2.8599557 
   11100    300.12792   -1715.7091   -1698.9887   -1352.3898    5058.1892    2.8609731    5052.9993    294.02297   -19.770414   -1700.0055    2.8599937 
   11200    295.33548   -1715.4089   -1698.9554    2025.6965    5049.3241    2.8593007    5053.0459    294.77784   -8.4202494   -1699.9191    2.8600025 
   11300    285.92201   -1714.9069   -1698.9778    3798.0827    5043.1248    2.8581301    5052.9971     295.4075    35.562187   -1699.8453    2.8599933 
   11400    303.35534   -1715.9958   -1699.0956   -914.33682    5054.4324    2.8602646    5053.0264     295.8891    41.540975   -1699.7867    2.8599988 
   11500    312.40118   -1716.7422    -1699.338   -3665.2925    5064.4614    2.8621551    5053.1895    296.25605    15.386978   -1699.7479    2.8600296 
   11600    291.20273   -1715.9297   -1699.7065   -2561.6576    5063.1858    2.8619148    5053.3077     296.3772   -13.776888   -1699.7338    2.8600519 
   11700    309.55534   -1717.3454   -1700.0997    279.03826    5051.7813    2.8597645    5053.3461    296.29266   -22.027062   -1699.7438    2.8600591 
   11800     278.4177   -1715.9155   -1700.4045    4066.8838    5040.0992    2.8575584    5053.2704    296.00191    -1.470733   -1699.7726    2.8600448 
   11900    271.14809   -1715.7013   -1700.5953    3245.6501    5043.0422    2.8581145    5053.1633    295.72767    33.017085   -1699.8116    2.8600245 
   12000    300.29194     -1717.34   -1700.6104   -2066.6293    5059.9304    2.8613013     5053.132    295.44587    38.074176   -1699.8517    2.8600186 
   12100    284.64159    -1716.232   -1700.3743   -5414.9653    5071.8248    2.8635416    5053.2209    295.00487    10.643817   -1699.8835    2.8600353 
   12200    298.81735   -1716.5168   -1699.8693   -1597.4618     5059.019    2.8611295    5053.3694    294.91839   -20.550559   -1699.8956    2.8600633 
   12300    305.32944    -1716.135   -1699.1248    2983.1901    5044.0374    2.8583025    5053.4102    295.07236   -16.981609   -1699.8779     2.860071 
   12400    309.40836   -1715.7713   -1698.5339    3795.8958    5043.1465    2.8581342    5053.4167    295.41663    10.477159   -1699.8331    2.8600722 
   12500    305.81344   -1715.3222    -1698.285    2489.6849    5049.1659    2.8592709    5053.4064    295.97991    29.526382   -1699.7751    2.8600702 
   12600    304.98384   -1715.2412   -1698.2503    -2832.226    5063.1406    2.8619063    5053.4911    296.42941     22.84634   -1699.7165    2.8600862 
   12700     301.5011   -1715.1638   -1698.3668   -3971.5011    5066.0771    2.8624595    5053.6489     296.9529   -1.8210412   -1699.6639    2.8601159 
   12800    292.84164   -1714.9217   -1698.6072    678.71297     5055.484     2.860463    5053.7517    297.26813   -9.1177774   -1699.6216    2.8601353 
   12900    291.82854   -1715.1876   -1698.9295    2323.1226    5048.9883    2.8592373    5053.7929     297.5216   -9.6251939    -1699.592    2.8601431 
   13000    303.93636   -1716.2007    -1699.268    4081.0519    5042.0889    2.8579343    5053.7631    297.67264     9.591952   -1699.5757    2.8601375 
   13100     302.3401   -1716.4578   -1699.6141    1675.3561    5049.4221    2.8593192    5053.7429    297.64853    26.516726   -1699.5716    2.8601337 
   13200    283.33244   -1715.6282   -1699.8435   -3690.8923    5065.0378    2.8622637    5053.7836    297.69738    18.187856   -1699.5765    2.8601413 
   13300    292.47282   -1716.2666   -1699.9726   -5128.8152    5070.6872    2.8633275    5053.8601    297.57137   -3.7388597    -1699.587    2.8601557 
   13400    296.43858   -1716.5527   -1700.0378   -1289.2003    5059.6865    2.8612554    5053.9205    297.41893   -18.266486   -1699.5997    2.8601671 
   13500    295.83366   -1716.4181   -1699.9369    4817.8895    5039.4016    2.8574265    5053.8933    297.31924   -10.829932    -1699.611    2.8601619 
   13600    309.13341   -1716.6894   -1699.4672    5423.5329    5035.2029    2.8566327    5053.8232    297.31983    16.141313   -1699.6151    2.8601487 
   13700     310.2679   -1715.6539   -1698.3685    1222.3326    5053.2442    2.8600405    5053.8174    297.49916    29.144851   -1699.5966    2.8601475 
   13800    293.60074   -1713.9089   -1697.5521   -6323.9912    5077.8847    2.8646816    5053.9306    297.86507    13.341984   -1699.5522    2.8601688 
   13900    313.64592   -1714.7592   -1697.2856   -5096.9609    5074.6725    2.8640774    5054.0611    298.29314   -6.6853613    -1699.497    2.8601934 
   14000    312.36539   -1714.8099   -1697.4076    446.14677    5054.0469    2.8601919     5054.166    298.77302   -20.508747   -1699.4424    2.8602131 
   14100    310.61629   -1715.0531   -1697.7483    7341.7232    5031.2105    2.8558775    5054.1688    299.16464    -4.882792   -1699.3964    2.8602136 
   14200    317.90223   -1716.0834   -1698.3727    4995.7432    5038.8251    2.8573176     5054.119    299.45528    19.691947   -1699.3647    2.8602041 
   14300    304.81981   -1716.0052   -1699.0233   -1018.8565    5058.3883    2.8610106    5054.1002    299.58111    26.495226   -1699.3493    2.8602006 
   14400     292.0746   -1715.7295   -1699.4577   -5415.8548    5071.3105    2.8634448    5054.1465    299.58647    11.047231   -1699.3472    2.8602093 
   14500    299.20107   -1716.4534   -1699.7846   -3469.7523    5063.4228    2.8619595    5054.1849     299.5289   -6.6376496   -1699.3537    2.8602165 
   14600    288.77856   -1716.0773   -1699.9891    1051.5858    5050.2936    2.8594837    5054.1808    299.45227   -10.296871   -1699.3654    2.8602157 
   14700    291.03211   -1716.2523   -1700.0386    3733.8474    5041.7441    2.8578692    5054.1312    299.33321    1.9761904   -1699.3793    2.8602063 
   14800    294.53175   -1716.4127    -1700.004     2360.449    5046.9947     2.858861    5054.0783    299.21266    10.048591    -1699.393    2.8601964 
   14900    288.64995   -1715.9134   -1699.8324   -1954.9883    5058.8019    2.8610886    5054.0653     299.0994    13.106504   -1699.4039    2.8601939 
   15000    303.24488   -1716.3232   -1699.4291   -2437.4272    5061.2435    2.8615488    5054.1146    299.05471   0.64461138   -1699.4088    2.8602033 
   15100    311.53494   -1716.1113   -1698.7554     -1404.83    5057.8422    2.8609077    5054.1397    299.11104   -2.8887708   -1699.4029     2.860208 
   15200    315.60099    -1715.606   -1698.0235    1654.5064    5051.2817    2.8596702    5054.1583    299.28728  -0.44240839   -1699.3831    2.8602116 
   15300    314.90431   -1715.1418   -1697.5981    1954.1503    5050.3285    2.8594903    5054.1895    299.54926    2.8207244   -1699.3528    2.8602175 
   15400    298.80622   -1714.1823   -1697.5355    1422.7983    5053.1323    2.8600194    5054.2148    299.83174    6.7574583   -1699.3192    2.8602222 
   15500    307.51079   -1714.8592   -1697.7274   -515.11368    5059.7175    2.8612612    5054.2565    300.11381    7.1741482   -1699.2882    2.8602301 
   15600    324.33536   -1716.1247   -1698.0556   -3125.5784    5066.5933    2.8625567    5054.3036     300.3201    3.2053459   -1699.2632     2.860239 
   15700    299.76272   -1715.1153   -1698.4152   -1043.9436    5060.5302    2.8614144    5054.3466    300.45596   -2.2005892   -1699.2453    2.8602471 
   15800    306.18716   -1715.7774   -1698.7193    708.78339    5052.6472    2.8599278    5054.3761    300.55125   -2.2802034   -1699.2338    2.8602527 
   15900    296.74396   -1715.4873   -1698.9553    2998.2346    5045.7041    2.8586172    5054.3934    300.64137   -1.1205696   -1699.2271     2.860256 
   16000    304.54585   -1716.1139   -1699.1473    2346.4769    5048.0792    2.8590657     5054.375    300.66202    7.2535711   -1699.2242    2.8602525 
   16100    300.35777   -1716.0502   -1699.3169   -487.68185    5058.7422    2.8610773    5054.3714    300.65067    10.241934   -1699.2244    2.8602519 
   16200    301.54021   -1716.2409   -1699.4417   -5188.1665    5068.4474    2.8629058    5054.3913    300.61539    2.3429144    -1699.227    2.8602556 
   16300    290.70077   -1715.7759   -1699.5807   -2537.8463     5059.483     2.861217    5054.4294    300.59878   -10.428357   -1699.2315    2.8602628 
   16400    318.34933   -1717.3861   -1699.6505      4782.33    5038.5872    2.8572726    5054.4118    300.56229   -8.1425709   -1699.2375    2.8602595 
   16500    304.27642   -1716.6321   -1699.6805    8369.9193    5028.1836    2.8553047    5054.3495    300.46993    7.2094345   -1699.2443    2.8602477 
   16600    291.24844   -1716.0368    -1699.811    1276.3745    5048.0007    2.8590509     5054.287     300.4081    23.881157   -1699.2518    2.8602358 
   16700    282.20285   -1715.4571   -1699.7353   -7499.8895    5079.0422    2.8648993    5054.3121    300.34193    15.150058   -1699.2594    2.8602405 
   16800    296.60196   -1716.1368   -1699.6128   -9163.9386    5082.0618    2.8654669    5054.3815    300.27654   -6.8817283   -1699.2658    2.8602535 
   16900    302.53436   -1716.3176    -1699.463   -47.062889    5055.5729    2.8604797    5054.4025    300.23994    -14.87865   -1699.2699    2.8602574 
   17000    306.27455   -1716.1595   -1699.0966    7574.9577    5032.7102    2.8561613     5054.373    300.21668   -3.2103905   -1699.2699    2.8602518 
   17100    300.41723   -1715.5123   -1698.7758    6574.4191    5035.0995    2.8566132    5054.3418     300.2738    12.624942   -1699.2654    2.8602459 
   17200    310.03311   -1715.7752   -1698.5029   -600.30412    5058.5747    2.8610458    5054.3522    300.33981    16.618017   -1699.2564    2.8602478 
   17300    315.48005   -1715.8192   -1698.2435   -6649.5003    5076.9601    2.8645077    5054.4093    300.45822    7.5268032   -1699.2441    2.8602586 
   17400    308.36603   -1715.3497   -1698.1703     -4732.92    5072.2931    2.8636297    5054.4743    300.56733   -4.0886422   -1699.2301    2.8602708 
   17500    297.58828   -1714.8481   -1698.2692    631.82895    5054.6332    2.8603025    5054.5093    300.66094    -6.513829   -1699.2163    2.8602774 
   17600    310.02591   -1715.8454   -1698.5735      5179.52     5039.616    2.8574671    5054.5182    300.76571   -2.2458757   -1699.2055    2.8602791 
   17700    293.53826   -1715.5168   -1699.1635    4372.7048    5041.4956    2.8578223    5054.5106    300.79885    8.3488369    -1699.201    2.8602776 
   17800    297.98081   -1716.4581   -1699.8572     331.8834    5054.5915    2.8602946    5054.5019    300.76586    10.238052   -1699.2051     2.860276 
   17900    290.58826   -1716.5143   -1700.3253    -3193.934    5063.7351    2.8620183    5054.5054    300.66769      8.11117   -1699.2167    2.8602767 
   18000    282.32719   -1716.2551   -1700.5263   -3881.4986    5066.0265      2.86245    5054.5211    300.54213  -0.74518443   -1699.2321    2.8602796 
   18100    290.49239   -1716.7001   -1700.5165    404.57617    5052.2242     2.859848    5054.5199    300.40728   -2.2332759   -1699.2482    2.8602794 
   18200    274.63661   -1715.6347   -1700.3343    3703.1348    5044.7091    2.8584293    5054.5044    300.28388   0.60496886   -1699.2626    2.8602765 
   18300    291.17893   -1716.2735   -1700.0516    3053.9357    5046.9151    2.8588459    5054.4808    300.17313    6.8232993   -1699.2739    2.8602721 
   18400    303.24082    -1716.616   -1699.7221   -556.08024    5056.9218    2.8607341    5054.4764     300.1123    9.6076589   -1699.2812    2.8602712 
   18500    291.24097   -1715.6285   -1699.4031   -4370.8604    5068.2051    2.8628602    5054.4939    300.08033    7.2880992   -1699.2844    2.8602746 
   18600    311.57933   -1716.5459   -1699.1875   -5023.3515    5070.0879    2.8632147    5054.5302     300.1053   -2.2607291   -1699.2844    2.8602814 
   18700     298.5859   -1715.7495    -1699.115    684.71027    5055.2956    2.8604274    5054.5609      300.097   -7.2540264   -1699.2827    2.8602872 
   18800    288.94561   -1715.1347   -1699.0372    5722.1368      5038.18    2.8571956    5054.5418    300.10745    1.8819745   -1699.2803    2.8602836 
   18900    297.79587   -1715.6615    -1699.071    3925.9595    5042.8477    2.8580777    5054.5212    300.12646    10.852708   -1699.2777    2.8602797 
   19000    300.43379   -1715.8473   -1699.1098   -1864.4302    5060.0103    2.8613164    5054.5269    300.17321    11.501042   -1699.2755    2.8602807 
   19100    297.96593   -1715.7361   -1699.1361   -5713.8764     5073.846    2.8639219    5054.5547    300.17698    5.2735715   -1699.2739     2.860286 
   19200    300.65246   -1715.9835   -1699.2338   -5389.3236    5073.0833    2.8637784    5054.5897    300.17408   -4.3105147    -1699.273    2.8602926 
   19300    286.58235   -1715.3457   -1699.3798    2421.2953    5046.8702    2.8588374    5054.6071    300.16537   -9.0414312   -1699.2732    2.8602958 
   19400    303.57151   -1716.3709   -1699.4586    9379.0314    5024.7866    2.8546615     5054.578    300.16273    1.2476051   -1699.2747    2.8602903 
   19500    297.34606    -1716.325   -1699.7596    5983.9947    5035.1365    2.8566202    5054.5359    300.13722    13.454542   -1699.2783    2.8602823 
   19600    290.94497    -1716.413   -1700.2042   -3029.7007     5063.539    2.8619814    5054.5229    300.06083    14.457078   -1699.2854    2.8602798 
   19700    283.27352   -1716.4292   -1700.6477   -7096.4459    5075.5486    2.8642422    5054.5337    299.96168    6.7565166   -1699.2972    2.8602819 
   19800    274.04914   -1716.3119   -1701.0443   -5053.4466    5067.0387    2.8626406    5054.5467    299.81825   -3.8391114   -1699.3133    2.8602843 
   19900    295.78882   -1717.6767    -1701.198    2372.5284    5044.4529    2.8583809    5054.5278    299.65666   -4.5726307   -1699.3317    2.8602807 
Finished 300 K - next row contains averaged properties
   20000    290.53666   -1717.2158   -1701.0297    5599.4721     5035.505    2.8566899    5054.4737      299.517     3.872426   -1699.3497    2.8602705 
Loop time of 5.69382 on 2 procs for 10000 steps with 432 atoms

Performance: 303.487 ns/day, 0.079 hours/ns, 1756.289 timesteps/s
99.7% CPU use with 2 MPI tasks x 1 OpenMP threads

MPI task timing breakdown:
Section |  min time  |  avg time  |  max time  |%varavg| %total
---------------------------------------------------------------
Pair    | 4.9667     | 4.9833     | 4.9999     |   0.7 | 87.52
Neigh   | 0.00042605 | 0.00044203 | 0.000458   |   0.0 |  0.01
Comm    | 0.35762    | 0.37598    | 0.39434    |   3.0 |  6.60
Output  | 0.030503   | 0.030724   | 0.030944   |   0.1 |  0.54
Modify  | 0.25962    | 0.2608     | 0.26199    |   0.2 |  4.58
Other   |            | 0.04258    |            |       |  0.75

Nlocal:    216 ave 221 max 211 min
Histogram: 1 0 0 0 0 0 0 0 0 1
Nghost:    2038 ave 2043 max 2033 min
Histogram: 1 0 0 0 0 0 0 0 0 1
Neighs:    14999.5 ave 15363 max 14636 min
Histogram: 1 0 0 0 0 0 0 0 0 1

Total # of neighbors = 29999
Ave neighs/atom = 69.4421
Neighbor list builds = 1
Dangerous builds = 0
System init for write_data ...
Setting up Verlet run ...
  Unit style    : metal
  Current step  : 0
  Time step     : 0.002
Per MPI rank memory allocation (min/avg/max) = 4.309 | 4.309 | 4.309 Mbytes
Step Temp PotEng TotEng Press Volume 
       0          600   -1717.2158   -1683.7891    9256.4908     5035.505 
     100    428.21005   -1706.6855   -1682.8295    3021.4456    5060.5112 
     200      427.872    -1704.801   -1680.9637   -7138.0063    5097.5124 
     300    479.29274   -1705.9201   -1679.2181   -8286.3811    5103.4101 
     400    475.65864    -1703.688   -1677.1885   -1385.0646    5082.9381 
     500    519.54221   -1703.8808   -1674.9365    5620.4537    5060.4866 
     600    538.00392   -1702.6555   -1672.6827    4654.2537    5068.7717 
     700    549.88137   -1701.1037   -1670.4692   -14.139997      5087.31 
     800    534.88136   -1698.1364   -1668.3376   -4150.9393    5106.0853 
     900    582.27347   -1698.7974   -1666.3582   -2920.0139    5100.6354 
    1000    599.79891   -1697.9873   -1664.5719    1941.6006    5086.8578 
    1100    588.70453   -1695.8556   -1663.0582    2168.0406    5090.8781 
    1200    601.05046   -1695.3778   -1661.8927   -2215.7116    5102.2241 
    1300    647.14337   -1697.1727   -1661.1196   -932.30135    5099.8587 
    1400    622.29775   -1695.5036   -1660.8346    233.50121    5099.0377 
    1500    612.45932   -1695.1704   -1661.0496   -447.80115    5098.1992 
    1600     614.7071   -1695.9916   -1661.7456   -1850.8822    5100.9528 
    1700    620.05078   -1697.3311   -1662.7874    542.68198    5094.2416 
    1800    603.59422    -1697.584   -1663.9571   -913.16148    5099.3443 
    1900    558.60613   -1696.1605     -1665.04   -1532.7303     5102.644 
    2000    572.13961   -1697.7756   -1665.9011     1312.934    5089.0037 
    2100    587.46044    -1699.183   -1666.4549    3934.3882    5076.7075 
    2200    601.85053   -1700.2495   -1666.7197    593.37872    5086.2324 
    2300    551.39392   -1697.3134   -1666.5947   -4288.2079    5106.0769 
    2400    578.58437   -1698.3252   -1666.0916   -3358.4565    5106.0917 
    2500      605.588   -1699.0031   -1665.2651    1372.8885    5088.0643 
    2600    597.85247   -1697.5504   -1664.2434    6067.5333    5074.9155 
    2700    605.87035   -1697.0824   -1663.3287    3340.8086    5085.7594 
    2800    613.38979   -1696.7509   -1662.5783   -3293.8133    5111.0568 
    2900    647.40411   -1698.1282   -1662.0606   -7787.0042    5118.0354 
    3000    604.82284    -1695.607   -1661.9116   -2319.9854    5102.0217 
    3100     637.7845   -1697.5874   -1662.0557    3959.7409    5080.9448 
    3200    622.47261   -1697.3701   -1662.6915    3741.4241    5083.3009 
    3300     591.5548   -1696.7544   -1663.7982    -849.7904    5099.9621 
    3400    578.95236   -1697.2931    -1665.039   -5496.5746    5115.6915 
    3500    614.88759   -1700.2585   -1666.0025   -5691.5501     5110.406 
    3600    566.95677   -1698.0459   -1666.4601    4216.6367    5079.8271 
    3700    596.25218   -1699.6109    -1666.393    9343.3241    5062.3073 
    3800     579.4371   -1698.4917   -1666.2106    3360.9595    5082.6868 
    3900    581.75916   -1698.1314   -1665.7209   -8993.2306     5122.327 
    4000     573.2596   -1697.1072   -1665.1703   -9765.7859    5125.5702 
    4100    589.77846   -1697.6219   -1664.7647    2948.8914    5087.8457 
    4200    612.16658   -1698.4264   -1664.3219    9153.5736    5058.0771 
    4300    596.81518   -1697.4539   -1664.2047    2424.7479    5087.8103 
    4400    621.47521    -1698.589   -1663.9659    -8489.557    5125.3144 
    4500    616.44703   -1698.2411   -1663.8982   -5812.8928    5113.4252 
    4600    588.49261   -1696.6853   -1663.8997    3116.8012    5086.3491 
    4700     624.7602   -1698.6982   -1663.8921     4599.254    5078.6364 
    4800    591.08011   -1696.9101   -1663.9803     538.2861      5097.26 
    4900    567.21106     -1695.72     -1664.12   -2563.1791    5105.0037 
    5000    586.85458   -1697.1503    -1664.456   -2850.8516    5104.5262 
    5100     596.4375   -1698.4518   -1665.2236   -9.3653628    5089.5757 
    5200    573.56891   -1698.2929   -1666.3388    2793.9155    5082.3359 
    5300    575.53706   -1699.3691   -1667.3053     348.1982    5089.6418 
    5400    585.09276   -1700.3888   -1667.7926   -2146.5785    5093.5224 
    5500    566.08436   -1699.3033   -1667.7661   -2790.5241    5096.9269 
    5600    614.66544    -1701.432   -1667.1883    42.492595    5090.3844 
    5700    600.75274   -1699.5196    -1666.051    1641.8139    5083.4315 
    5800    582.06065   -1697.1633    -1664.736    3256.9474    5088.6153 
    5900    604.59604   -1697.5048   -1663.8221    -1624.586    5100.6425 
    6000    607.58645   -1697.1672   -1663.3179   -1259.0944     5100.872 
    6100    596.49509    -1696.329   -1663.0975    841.73302    5094.2751 
    6200     633.4603   -1698.3572   -1663.0664    886.05824    5091.7417 
    6300    645.00343   -1699.1537   -1663.2198   -701.61295    5097.5658 
    6400    612.84715   -1697.7086   -1663.5662   -2019.6028    5103.5073 
    6500    580.80501    -1696.488   -1664.1307    954.34096    5094.6398 
    6600    604.89308    -1698.718   -1665.0187    2593.2948    5086.5979 
    6700     583.5372     -1698.82   -1666.3105     1563.559    5088.3717 
    6800    595.96085   -1700.8092   -1667.6076    251.79043    5090.2952 
    6900    579.16087    -1700.629   -1668.3633   -1057.5704    5092.3858 
    7000    539.42665   -1698.5133   -1668.4612   -2040.0067    5098.3411 
    7100    566.85503   -1699.5437   -1667.9636   -253.86821    5090.7364 
    7200    573.16478   -1698.9619   -1667.0302    3977.7665    5078.3586 
    7300    618.76175   -1700.6354   -1666.1635    3571.0108    5078.5491 
    7400    599.45611   -1699.0694    -1665.673   -5321.2367    5107.0883 
    7500    604.89784   -1698.9501   -1665.2506   -9324.9268    5126.0091 
    7600    584.21396   -1697.4897   -1664.9425    173.10573     5092.301 
    7700     612.5968   -1698.4835    -1664.355    10335.219    5057.6295 
    7800    589.68525    -1696.759    -1663.907    7063.3132    5075.3549 
    7900    609.77829   -1697.2981   -1663.3267     -5498.98    5116.4682 
    8000    600.25697   -1696.2088   -1662.7678   -7738.9887    5124.6979 
    8100    601.11788   -1695.9249   -1662.4359   -982.33414    5101.4505 
    8200    580.60444   -1694.5414   -1662.1953    6297.0022    5079.8955 
    8300     651.0192   -1698.5314   -1662.2624    5848.9438    5081.0303 
    8400    600.41679   -1696.2953   -1662.8454   -250.89271    5099.7134 
    8500    575.06434   -1695.9994    -1663.962   -5949.9155    5116.7449 
    8600    583.20009   -1697.8561   -1665.3654   -3036.8805    5106.7681 
    8700    601.09328   -1699.8523   -1666.3647    3027.4479     5083.121 
    8800    582.98222    -1699.318   -1666.8394    3543.9703    5077.6959 
    8900    544.25292   -1697.2283   -1666.9073   -268.93135    5096.8502 
    9000    580.70828   -1698.8906   -1666.5387   -3789.4005    5106.7642 
    9100    583.94272   -1698.3685   -1665.8364   -1859.0148    5099.2945 
    9200    601.40261   -1698.2945   -1664.7897    1541.4272    5087.5742 
    9300    627.35282   -1698.6659   -1663.7154    1570.3463    5089.6739 
    9400    607.42936   -1696.8434   -1663.0028   -264.36593    5101.1937 
    9500    615.08301   -1697.0087   -1662.7417   -2755.8096    5108.6212 
    9600    594.98233   -1695.9457   -1662.7986   -94.934907    5099.8554 
    9700    611.17639   -1697.0379   -1662.9886    2072.5151    5090.7391 
    9800    606.42265    -1697.066   -1663.2816    2146.0687    5092.6909 
    9900    590.24142   -1696.5622   -1663.6792   -1489.4018    5102.7021 
   10000    604.72709    -1697.838   -1664.1479   -24.757934    5095.4416 
Loop time of 5.27977 on 2 procs for 10000 steps with 432 atoms

Performance: 327.287 ns/day, 0.073 hours/ns, 1894.023 timesteps/s
99.6% CPU use with 2 MPI tasks x 1 OpenMP threads

MPI task timing breakdown:
Section |  min time  |  avg time  |  max time  |%varavg| %total
---------------------------------------------------------------
Pair    | 4.5341     | 4.6405     | 4.7468     |   4.9 | 87.89
Neigh   | 0.0004251  | 0.00043654 | 0.00044799 |   0.0 |  0.01
Comm    | 0.32652    | 0.42975    | 0.53298    |  15.7 |  8.14
Output  | 0.029171   | 0.029342   | 0.029513   |   0.1 |  0.56
Modify  | 0.14074    | 0.14182    | 0.1429     |   0.3 |  2.69
Other   |            | 0.03794    |            |       |  0.72

Nlocal:    216 ave 225 max 207 min
Histogram: 1 0 0 0 0 0 0 0 0 1
Nghost:    1964.5 ave 1990 max 1939 min
Histogram: 1 0 0 0 0 0 0 0 0 1
Neighs:    15073.5 ave 15738 max 14409 min
Histogram: 1 0 0 0 0 0 0 0 0 1

Total # of neighbors = 30147
Ave neighs/atom = 69.7847
Neighbor list builds = 1
Dangerous builds = 0
Setting up Verlet run ...
  Unit style    : metal
  Current step  : 10000
  Time step     : 0.002
Per MPI rank memory allocation (min/avg/max) = 4.309 | 4.309 | 4.309 Mbytes
Step Temp PotEng TotEng Press Volume v_my_lx f_1 f_2 f_3 f_4 f_5 
   10000    604.72709    -1697.838   -1664.1479   -24.757934    5095.4416    2.8679794            0            0            0            0            0 
   10100    585.84398   -1697.3123   -1664.6742    1519.0923    5092.1188    2.8673558    5097.8923    597.02224   -323.28279   -1664.4096     2.868439 
   10200    600.09538   -1698.6619   -1665.2299   -1071.3516    5097.4491     2.868356    5096.0937    596.34359   -81.461233   -1664.6803    2.8681016 
   10300    602.64118   -1699.4029   -1665.8291     388.1242    5094.5542    2.8678129    5095.5924    593.69978  -0.22504093   -1664.9618    2.8680076 
   10400    584.32337   -1699.1235   -1666.5702    2148.2227    5088.9119    2.8667538    5095.5326    591.68977   -53.048777   -1665.2684    2.8679964 
   10500    569.41313   -1699.2187   -1667.4961    1255.6504    5088.5922    2.8666937    5095.4386    588.31576   -111.87993   -1665.6205    2.8679787 
   10600    537.54108   -1698.3768   -1668.4298   -1715.3521    5099.2307    2.8686901    5094.9159    585.42196   -116.78343   -1666.0134    2.8678806 
   10700    558.82947   -1700.1632   -1669.0302   -1997.5793    5099.6097    2.8687612    5093.9903    581.95895    21.055909   -1666.4071    2.8677068 
   10800    549.75338   -1699.7129   -1669.0855     2642.259    5081.9569    2.8654472    5093.4299    578.66101    73.888874   -1666.7449    2.8676015 
   10900    558.58708   -1699.3993   -1668.2798    5251.7902    5072.7597    2.8637175    5093.6275    576.81897   -58.895999   -1666.9692    2.8676384 
   11000    591.08025   -1699.5896   -1666.6598   -642.77992    5096.2009    2.8681218    5093.8932    576.24718   -144.09865   -1667.0222     2.867688 
   11100    593.65892   -1698.2295   -1665.1561   -6848.5638    5116.2078    2.8718702    5093.5389     577.3637   -34.765151   -1666.9142    2.8676213 
   11200    586.83226   -1697.0864   -1664.3933   -1681.7068    5105.0729    2.8697853    5093.3132    578.96677     85.82157   -1666.7319    2.8675789 
   11300    611.40794   -1697.9131   -1663.8509    4130.9539     5080.432    2.8651606    5093.8712    580.64936    29.542906    -1666.529    2.8676833 
   11400    604.35524   -1697.1746   -1663.5053    4202.8982     5082.217    2.8654961    5094.4051    582.32806   -64.717934   -1666.3256    2.8677835 
   11500    608.69787   -1697.1855   -1663.2743   -1664.0917    5106.3766    2.8700295    5094.6421    583.86895   -83.240511    -1666.129    2.8678279 
   11600    615.63609   -1697.4282   -1663.1304   -6158.5055    5118.0621    2.8722171    5094.6802    585.39986   -12.592619   -1665.9456     2.867835 
   11700    616.66045   -1697.5315   -1663.1767   -2096.8484    5106.9796    2.8701425     5094.698    586.87031    55.755356   -1665.7802    2.8678383 
   11800     642.4628   -1699.1802   -1663.3879     5305.522    5079.5144     2.864988    5094.8907    588.29172      48.5109   -1665.6395    2.8678743 
   11900    629.55854   -1698.9626   -1663.8892    7229.9559    5072.0574    2.8635854    5095.3467    588.88285   -46.244598   -1665.5341    2.8679597 
   12000    579.66433   -1697.1113   -1664.8175    1617.0604    5092.8324    2.8674898    5095.5489    589.30505   -93.626864   -1665.4737    2.8679975 
   12100    563.93879   -1697.2785   -1665.8608   -6949.2507    5119.0514    2.8724022    5095.3165    589.55813   -39.955672   -1665.4665    2.8679538 
   12200    579.83217   -1699.1329   -1666.8298   -5792.1845    5111.5137    2.8709916    5094.9893    589.11383    42.103058   -1665.5083    2.8678923 
   12300    585.39932   -1699.9946   -1667.3813    3637.5889    5076.1424    2.8643539    5094.8254    588.52048    53.128038   -1665.5787    2.8678614 
   12400    575.92819   -1699.5124   -1667.4268     8676.418    5063.9196    2.8620531    5094.9133    587.82068   -16.183902    -1665.657    2.8678778 
   12500    554.01385   -1697.9662   -1667.1015    1701.6948    5088.2407    2.8666277     5095.045    587.16589    -83.06306   -1665.7229    2.8679024 
   12600    604.37819   -1699.4952   -1665.8246   -9440.9784    5123.0264    2.8731455    5094.8736    587.02178    -51.89831   -1665.7534      2.86787 
   12700    616.73498   -1698.3701   -1664.0111   -7845.0694    5124.5227    2.8734252    5094.5973    587.21896    40.138896   -1665.7232    2.8678181 
   12800    601.46949   -1696.4012   -1662.8927    3426.4278    5086.7654    2.8663507    5094.6425    587.84889    64.268594   -1665.6376    2.8678263 
   12900    625.51244   -1697.2706   -1662.4226    11139.176    5061.8655     2.861666    5094.9796    588.77078 -0.030430737   -1665.5336    2.8678894 
   13000    617.64515   -1696.9292   -1662.5195    3856.6083    5082.9524    2.8656343    5095.2798    589.63985   -63.082571   -1665.4315    2.8679456 
   13100    597.43694   -1696.0185   -1662.7346   -5875.3055    5116.3836    2.8719031    5095.2406    590.31122   -39.270676   -1665.3397    2.8679382 
   13200    623.61353   -1697.9311   -1663.1889   -6362.2001    5115.8612    2.8718053    5095.1464    591.05092    3.4536978   -1665.2654    2.8679205 
   13300    595.93511   -1697.0551   -1663.8549   -1006.5023    5096.1938    2.8681205     5095.147    591.55217    15.888191   -1665.2122    2.8679207 
   13400    593.23779   -1697.6755   -1664.6256    4220.4447    5081.7731    2.8654126    5095.1322     591.6922    9.2157867   -1665.1836     2.867918 
   13500    585.46836   -1698.0119   -1665.3948    3944.3601    5081.1286    2.8652915    5095.1537    591.66842   -11.533359   -1665.1793    2.8679221 
   13600    573.60304   -1698.0222   -1666.0662   -596.56755     5092.251    2.8673806    5095.1409    591.59643    -26.80295   -1665.1951    2.8679197 
   13700    571.51808   -1698.3553   -1666.5154   -4013.0377    5105.9077    2.8699417    5095.0253    591.37933   -13.293161   -1665.2252    2.8678981 
   13800    554.88234   -1697.6804   -1666.7673   -1090.5134    5098.2666    2.8685093    5094.8466    591.07614    12.906817    -1665.263    2.8678646 
   13900    582.67837   -1699.1551   -1666.6934    1915.6529    5085.1297    2.8660434    5094.8049    590.74394    5.7368478   -1665.3016    2.8678568 
   14000    571.05552   -1697.7725   -1665.9583    3357.1116    5082.8104    2.8656076    5094.8258    590.50343   -10.629207    -1665.329    2.8678608 
   14100    575.60525   -1696.5269   -1664.4593    182.35067     5094.659    2.8678326    5094.8463    590.62167   -21.935993   -1665.3269    2.8678647 
   14200    600.83664   -1696.5099   -1663.0366   -3818.3132    5110.8215     2.870862    5094.8506    590.78024   -5.6301608   -1665.2882    2.8678656 
   14300    610.18561   -1696.1532    -1662.159   -938.43293    5101.8737    2.8691857    5094.9014    591.41792    2.5686376   -1665.2244    2.8678752 
   14400    630.20634   -1696.8663   -1661.7568    1693.3544    5095.0133     2.867899    5095.0348    592.03117   -1.4316254   -1665.1493    2.8679002 
   14500    634.87666   -1697.1374   -1661.7677    1559.6341    5090.9774    2.8671416    5095.1202    592.71548   -11.792298   -1665.0733    2.8679163 
   14600    633.82597   -1697.5016   -1662.1905    1029.7618    5096.8666    2.8682467    5095.2116    593.25731   -13.594383   -1665.0053    2.8679335 
   14700    622.72126   -1697.7096   -1663.0171    384.23557    5094.9375    2.8678848    5095.2548     593.7558   -13.325102   -1664.9536    2.8679417 
   14800    618.20924   -1698.5712     -1664.13   -2180.2833    5099.7672    2.8687907    5095.2691    593.98307   -13.501034   -1664.9247    2.8679444 
   14900    606.12876   -1698.9364   -1665.1682    -3745.729    5104.7124    2.8697177    5095.2254    593.99277   -5.8941774   -1664.9197    2.8679362 
   15000    594.25588   -1698.9498   -1665.8431   -2277.5562    5097.2583    2.8683202    5095.1402    593.81026    9.7602779   -1664.9323    2.8679203 
   15100    596.67211   -1699.3231   -1666.0818    4878.2934    5075.8375    2.8642966    5095.0496    593.67472    13.360374   -1664.9529    2.8679033 
   15200    592.43036   -1698.9913   -1665.9863    8949.7166    5062.5658     2.861798    5095.1034    593.48131   -21.308487   -1664.9745    2.8679134 
   15300    543.25391   -1696.0658   -1665.8005   -1206.6209    5097.4249    2.8683514    5095.1563    593.30196   -49.605514   -1664.9916    2.8679232 
   15400    594.84317   -1698.3829   -1665.2435   -13425.756    5135.8591    2.8755425    5094.9636    593.18097   -13.779916   -1665.0017    2.8678868 
   15500    561.80767   -1696.3225   -1665.0236   -7327.4669    5116.1315    2.8718559     5094.712    593.16241    38.553815   -1665.0046    2.8678394 
   15600    622.18218    -1699.344   -1664.6816     7780.974    5066.0634    2.8624569    5094.6952    593.19501    35.317274   -1665.0007    2.8678361 
   15700    590.56358    -1697.242   -1664.3411    12219.119    5054.8398    2.8603415    5094.8543    593.21401    -16.15018   -1664.9926    2.8678658 
   15800     597.8079   -1697.5348   -1664.2302    723.43726    5092.8473    2.8674926    5094.8842    593.28853   -32.475389   -1664.9805    2.8678713 
   15900    588.67602   -1696.8236   -1664.0278    -6867.962    5118.0583    2.8722164    5094.8152    593.36615   -14.510815   -1664.9658    2.8678584 
   16000    599.03466   -1697.2903   -1663.9174   -4695.6025     5109.794    2.8706696    5094.7254    593.60334    11.550065   -1664.9493    2.8678415 
   16100    611.94358   -1697.9202   -1663.8281    2231.0842    5085.0842    2.8660348    5094.7175    593.73946    11.553519   -1664.9315      2.86784 
   16200    628.98513   -1698.7905    -1663.749    2375.1299    5085.7963    2.8661686    5094.7716    593.87644   -3.2939324   -1664.9131    2.8678502 
   16300    594.49245    -1696.843   -1663.7232    422.32504    5094.6554    2.8678319    5094.8223    594.01061   -10.790735   -1664.8944    2.8678598 
   16400    583.66864   -1696.2421   -1663.7253   -1826.1793    5103.0659    2.8694091    5094.8082    594.17153   -4.4041588   -1664.8759    2.8678572 
   16500    582.17253   -1696.2945    -1663.861   -2258.1684    5104.5181    2.8696813    5094.8003    594.26594    2.0245414   -1664.8592    2.8678558 
   16600    592.21713   -1697.1167   -1664.1236     1274.037    5091.2191     2.867187    5094.7821    594.40366    7.6468787   -1664.8458    2.8678524 
   16700      604.549    -1698.149   -1664.4689      2079.28    5086.3354    2.8662699    5094.8501    594.44494   -4.2748467   -1664.8376    2.8678652 
   16800    560.25594   -1696.0824   -1664.8699   -1902.4059    5100.8867    2.8690006    5094.8901    594.51567   -12.440153   -1664.8352    2.8678727 
   16900    578.80058   -1697.4673   -1665.2217   -4122.5092    5109.7816    2.8706673    5094.8488    594.44492   -1.3884613   -1664.8384     2.867865 
   17000    625.15843   -1700.3299   -1665.5017    626.62103    5093.7712     2.867666    5094.7915      594.435    10.293275    -1664.846    2.8678543 
   17100    620.11681   -1700.1546   -1665.6072    5168.2672    5076.9094    2.8644982    5094.8059    594.35472    4.2490974   -1664.8563     2.867857 
   17200     578.6301   -1697.8093   -1665.5732    4354.4357    5081.1897     2.865303    5094.8701    594.23888   -14.384369   -1664.8669     2.867869 
   17300    571.38009   -1697.0861   -1665.2539   -3643.8985    5110.4635     2.870795    5094.8844    594.17935   -19.284005   -1664.8746    2.8678717 
   17400    594.90203   -1697.6986   -1664.5559   -8879.6734    5124.8457    2.8734855    5094.8332    594.18796     2.233431   -1664.8756    2.8678621 
   17500    617.70243   -1698.0713   -1663.6584   -915.33951    5099.4109    2.8687239    5094.7964    594.28251    23.656492   -1664.8654    2.8678552 
   17600    615.32283   -1696.7273    -1662.447    10963.486     5058.645     2.861059    5094.8798    594.47496    10.694371   -1664.8414    2.8678707 
   17700    630.05356   -1696.7625   -1661.6615    10004.859    5063.8444    2.8620389    5095.0542    594.76626   -27.859488   -1664.8055    2.8679033 
   17800     658.2779   -1697.9564    -1661.283   -8177.3097    5124.1585    2.8733571    5095.1355    595.10994   -34.718989   -1664.7616    2.8679184 
   17900    616.60906   -1695.4923   -1661.1403   -12271.174    5143.5939    2.8769853    5095.0519    595.49721    7.2713129   -1664.7163    2.8679026 
   18000    626.01548    -1696.705   -1661.8289   -588.59409    5099.1333    2.8686719    5095.0421    595.86857    28.182089   -1664.6752    2.8679007 
   18100    632.50954   -1698.3764   -1663.1386     8336.916    5065.0841    2.8622725    5095.1308    596.06974    11.563131   -1664.6469    2.8679172 
   18200    587.75991   -1697.8449   -1665.1001    6918.4359    5071.1554    2.8634156    5095.2059    596.11499   -13.827777   -1664.6412    2.8679313 
   18300    563.66666   -1697.5791   -1666.1766   -386.59768    5093.8403    2.8676789    5095.1977    595.95486   -19.318764   -1664.6542    2.8679297 
   18400     576.7589   -1698.4935   -1666.3616   -7116.6446    5113.7731    2.8714146    5095.1141    595.80632   -7.3990216   -1664.6737     2.867914 
   18500    577.68161   -1698.4382   -1666.2549   -4910.0199    5107.9858     2.870331    5094.9874    595.65113    11.874835   -1664.6934    2.8678903 
   18600    573.55693   -1697.8195    -1665.866    3067.9703    5083.9594    2.8658235    5094.9433    595.46616    13.950264   -1664.7095     2.867882 
   18700     583.9739   -1697.7199    -1665.186    7002.2316    5070.8682    2.8633616    5094.9543    595.36632   0.46505002   -1664.7191    2.8678841 
   18800    596.58493   -1697.6384    -1664.402    2431.1285    5084.1201    2.8658537      5094.98    595.37851   -13.346106     -1664.72    2.8678889 
   18900    618.69764    -1698.017   -1663.5486   -6031.6883    5117.2147    2.8720586     5094.988    595.44129   -9.9421391   -1664.7115    2.8678904 
   19000    594.17452     -1695.96   -1662.8578   -5450.1783    5120.2374     2.872624    5094.9359    595.59907    11.976858   -1664.6946    2.8678806 
   19100    631.95549   -1697.6685   -1662.4615    2005.8004    5088.0723    2.8665961     5094.931    595.77877    20.524776   -1664.6717    2.8678797 
   19200    626.80296   -1697.0769    -1662.157    9296.2296    5065.0917    2.8622739    5095.0271    596.00814 -0.024747098   -1664.6459    2.8678977 
   19300    627.63343   -1697.3091    -1662.343    2949.6132    5086.1344    2.8662321    5095.1192    596.18975   -17.374637     -1664.62    2.8679149 
   19400    613.79505    -1697.108   -1662.9127   -5720.9673    5117.9262    2.8721917     5095.107    596.39014   -9.9506982    -1664.598    2.8679126 
   19500    570.51944   -1696.3727   -1664.5884   -6322.6336    5115.1748    2.8716769    5095.0419    596.46031    8.8209032   -1664.5882    2.8679004 
   19600    575.38335   -1698.5818   -1666.5266    2958.1438    5081.3787    2.8653385    5094.9787    596.38256    15.432124   -1664.5991    2.8678885 
   19700    573.79779   -1699.2704   -1667.3034     7940.034    5065.3017    2.8623134    5094.9594    596.16091    3.8788295   -1664.6238    2.8678849 
   19800    558.57241   -1698.5993   -1667.4806    4195.8053    5078.9731    2.8648863    5094.9747    595.92501   -12.021905   -1664.6527    2.8678878 
   19900    567.45674   -1698.7533   -1667.1396   -5364.4619    5108.3029    2.8703904    5094.9321    595.66329   -9.8596237   -1664.6798    2.8678798 
Finished 600 K - next row contains averaged properties
   20000    575.77791    -1698.441   -1666.3638   -5956.5513    5111.3438    2.8709598    5094.8323     595.5126    6.9473178   -1664.7008    2.8678611 
Loop time of 5.94119 on 2 procs for 10000 steps with 432 atoms

Performance: 290.851 ns/day, 0.083 hours/ns, 1683.164 timesteps/s
99.5% CPU use with 2 MPI tasks x 1 OpenMP threads

MPI task timing breakdown:
Section |  min time  |  avg time  |  max time  |%varavg| %total
---------------------------------------------------------------
Pair    | 5.1169     | 5.1904     | 5.264      |   3.2 | 87.36
Neigh   | 0.00042105 | 0.00044096 | 0.00046086 |   0.0 |  0.01
Comm    | 0.33988    | 0.41411    | 0.48835    |  11.5 |  6.97
Output  | 0.031401   | 0.031618   | 0.031835   |   0.1 |  0.53
Modify  | 0.25966    | 0.26129    | 0.26292    |   0.3 |  4.40
Other   |            | 0.04329    |            |       |  0.73

Nlocal:    216 ave 228 max 204 min
Histogram: 1 0 0 0 0 0 0 0 0 1
Nghost:    1978 ave 2000 max 1956 min
Histogram: 1 0 0 0 0 0 0 0 0 1
Neighs:    15032.5 ave 15891 max 14174 min
Histogram: 1 0 0 0 0 0 0 0 0 1

Total # of neighbors = 30065
Ave neighs/atom = 69.5949
Neighbor list builds = 1
Dangerous builds = 0
System init for write_data ...
Setting up Verlet run ...
  Unit style    : metal
  Current step  : 0
  Time step     : 0.002
Per MPI rank memory allocation (min/avg/max) = 4.309 | 4.309 | 4.309 Mbytes
Step Temp PotEng TotEng Press Volume 
       0          900    -1698.441    -1648.301   -2181.9724    5111.3438 
     100    776.40225   -1690.3693    -1647.115    -2400.252    5126.3024 
     200    728.72882   -1685.0395   -1644.4412   -2344.0768    5130.7536 
     300    831.26489   -1688.6278   -1642.3171      2233.27    5115.5356 
     400    790.82179   -1684.1374   -1640.0798   -1222.5011    5136.0746 
     500    772.72028   -1680.5296   -1637.4805   -864.91727     5141.995 
     600    833.56909   -1681.3209   -1634.8818    5465.8788    5119.3477 
     700    896.59856   -1682.4029   -1632.4524   -2335.7387    5151.7109 
     800     868.5229   -1678.6157   -1630.2293   -3795.7679    5157.8004 
     900    880.91035   -1677.2354   -1628.1589    11709.496    5113.8921 
    1000    938.20906   -1678.7841   -1626.5154   -11355.219    5189.6936 
    1100    961.87932    -1678.998   -1625.4106    1590.2023    5151.2153 
    1200    909.09536    -1675.201   -1624.5542    12980.631    5110.4207 
    1300    896.65879   -1674.2281   -1624.2743   -12620.331    5207.4244 
    1400    929.18232    -1676.574   -1624.8082    6234.5814     5132.811 
    1500    968.58973   -1679.6453   -1625.6841    4381.2721     5131.195 
    1600     871.9701   -1675.4445   -1626.8661   -9456.3313    5188.2217 
    1700    885.06682    -1677.691   -1628.3829    8653.7505    5118.4649 
    1800    867.11029   -1678.0604   -1629.7527    342.55642    5150.2585 
    1900     839.7031    -1677.422   -1630.6412   -2473.7874    5158.3823 
    2000    874.80244   -1679.9427   -1631.2065    6622.6726    5117.6366 
    2100    883.40071   -1680.7048   -1631.4896   -3781.4168    5154.1364 
    2200     869.0784   -1679.7196   -1631.3022   -1714.8677    5151.3058 
    2300    861.94744   -1678.4585   -1630.4385    8079.9182    5122.2365 
    2400    907.40621   -1679.3056    -1628.753    -6655.706    5165.3517 
    2500    910.32167   -1677.2014   -1626.4863    -396.0335    5151.6706 
    2600    908.41085    -1675.339   -1624.7304    7068.6624    5132.3923 
    2700    902.13572    -1674.272    -1624.013    -5866.265    5184.9797 
    2800     911.8464   -1674.9605   -1624.1605    2832.6492    5143.1381 
    2900    943.87011   -1677.3303   -1624.7462     3816.739    5141.8714 
    3000    911.15218    -1676.383   -1625.6217   -8352.8711    5179.7397 
    3100    900.80239   -1676.8735   -1626.6888    6761.1039    5128.1029 
    3200    933.14602   -1679.6626    -1627.676    -2111.447    5152.6401 
    3300    869.12603   -1676.7887   -1628.3687   -6521.0901    5174.3709 
    3400     936.4279   -1680.9535    -1628.784    6670.6681    5117.4476 
    3500    882.13628   -1678.2676   -1629.1228   -4200.8607    5162.5915 
    3600    907.95839   -1679.8267   -1629.2434   -6602.1815    5169.0189 
    3700    933.96745   -1681.1599   -1629.1275    7923.5069    5114.8732 
    3800    897.55474   -1679.0264   -1629.0227   -7109.6287    5173.8809 
    3900    945.46633   -1681.4591   -1628.7861   -1557.4902    5148.0993 
    4000     901.5855   -1678.6969   -1628.4686    5935.9867    5127.3802 
    4100    904.97115   -1678.5926   -1628.1756   -6237.1307    5171.6616 
    4200    862.11831   -1675.8416    -1627.812    3391.2974    5138.4785 
    4300    925.88706   -1678.8663   -1627.2841    1411.7354    5140.8111 
    4400    888.14249   -1675.6194     -1626.14   -4383.9762    5170.0492 
    4500    922.92205   -1675.1701    -1623.753    5050.9908    5138.3823 
    4600    983.42215   -1676.3553   -1621.5677   -1905.8811    5162.0426 
    4700    984.96454   -1675.4802   -1620.6067   -5649.7198    5173.2524 
    4800    971.88517   -1674.9715   -1620.8267    2097.9879    5147.3417 
    4900    927.98402   -1673.8458   -1622.1468   -954.49637    5160.6913 
    5000    935.13311   -1676.2583    -1624.161     -1063.12    5151.9429 
    5100    935.28628   -1678.1358     -1626.03    1123.0222    5142.4071 
    5200    914.94419     -1678.26   -1627.2874   -3665.1978    5157.3511 
    5300    947.50033   -1680.8506   -1628.0643   -2140.4148    5150.7773 
    5400    897.78968   -1678.5903   -1628.5734    1956.5379    5137.5236 
    5500    890.08469   -1678.5032   -1628.9156   -5220.0405    5159.5587 
    5600    878.11203   -1678.0174   -1629.0968   -1314.3889    5147.1689 
    5700    878.84309   -1677.9882   -1629.0269    5350.8355    5126.2597 
    5800    889.72781   -1678.3935   -1628.8258   -5391.8601    5169.8354 
    5900     885.0217   -1677.5684   -1628.2629     2518.468    5134.5436 
    6000    873.13854   -1675.8117   -1627.1681    1914.2831    5143.0954 
    6100    906.78547   -1675.9999   -1625.4819   -6584.0537    5177.4595 
    6200    988.05705    -1678.897   -1623.8512    7806.8488    5123.0378 
    6300    976.30544   -1677.2765   -1622.8854   -3878.1748    5174.0607 
    6400    965.78414   -1676.3545   -1622.5496    -5930.043    5170.8019 
    6500    961.07803   -1676.5012   -1622.9585    10295.758    5125.2398 
    6600    894.24296   -1674.4777   -1624.6584   -6742.3134    5179.1312 
    6700    906.72866    -1677.795   -1627.2801    57.146483    5152.2489 
    6800    946.22032    -1681.657    -1628.942     8519.425    5112.1241 
    6900     866.0475   -1677.9122   -1629.6637    -11121.97    5186.5116 
    7000    889.65177   -1679.5699   -1630.0064    4513.8765    5126.9337 
    7100    868.72893   -1678.3298   -1629.9319    6755.8444    5126.6858 
    7200    855.38795   -1677.1919   -1629.5372   -9910.2795    5179.6501 
    7300    951.27815   -1682.0062   -1629.0094    4329.8666    5129.1638 
    7400    923.03253   -1679.6434   -1628.2202    1608.7684    5140.5196 
    7500     907.5114   -1677.6661   -1627.1076   -6603.7993    5170.8498 
    7600    856.41907   -1673.5127   -1625.8006    6431.3168    5138.4343 
    7700    886.68887   -1673.6738   -1624.2754    5105.9765    5149.4519 
    7800    942.66491   -1675.4028   -1622.8859   -2392.1947    5163.2886 
    7900    963.84182   -1675.5448   -1621.8481    1739.8984    5155.1189 
    8000    898.44497   -1671.5514    -1621.498    3696.5382    5159.0126 
    8100    953.81433   -1675.4449   -1622.3068   -446.47069    5158.7376 
    8200    943.05699   -1677.4372   -1624.8985   -1482.0242    5157.2104 
    8300    864.73196   -1675.7862    -1627.611     2225.102    5142.5739 
    8400    937.10191   -1681.3265   -1629.1195   -1660.7934    5150.2255 
    8500    867.11395   -1678.2435   -1629.9357    84.136015    5142.5166 
    8600    846.22087   -1677.5147   -1630.3708    939.48933    5146.2959 
    8700    892.26721   -1680.1702    -1630.461    1011.1385    5137.5375 
    8800    882.18105   -1679.3966   -1630.2493   -3487.4306    5156.0628 
    8900    895.87435    -1679.482   -1629.5719    3703.5238    5134.5553 
    9000    887.96182   -1677.9436   -1628.4743   -603.18957    5151.4676 
    9100    888.62376   -1676.4848   -1626.9786   -4163.6121    5164.4017 
    9200    929.67689   -1677.1581   -1625.3648    5855.1147     5131.429 
    9300    940.05682   -1676.6336    -1624.262   -2632.8194    5168.4758 
    9400    903.38055   -1674.0447   -1623.7163   -1840.1699    5165.2262 
    9500     956.6245   -1677.1018   -1623.8072    6248.3477    5131.5051 
    9600    867.87139   -1673.2078   -1624.8577   -4269.7275    5176.6957 
    9700    900.84933   -1677.8182   -1627.6309    4332.1633    5134.7091 
    9800    842.58574   -1677.4885   -1630.5471    5358.3547    5130.1901 
    9900    838.66775   -1678.3267   -1631.6036   -8105.8239    5172.6479 
   10000    886.52394   -1681.1879   -1631.7986    6516.5091    5117.4747 
Loop time of 5.32229 on 2 procs for 10000 steps with 432 atoms

Performance: 324.672 ns/day, 0.074 hours/ns, 1878.889 timesteps/s
99.5% CPU use with 2 MPI tasks x 1 OpenMP threads

MPI task timing breakdown:
Section |  min time  |  avg time  |  max time  |%varavg| %total
---------------------------------------------------------------
Pair    | 4.5793     | 4.6936     | 4.808      |   5.3 | 88.19
Neigh   | 0.00042701 | 0.00044    | 0.000453   |   0.0 |  0.01
Comm    | 0.30612    | 0.42004    | 0.53395    |  17.6 |  7.89
Output  | 0.031571   | 0.031756   | 0.031942   |   0.1 |  0.60
Modify  | 0.13789    | 0.13923    | 0.14057    |   0.4 |  2.62
Other   |            | 0.03718    |            |       |  0.70

Nlocal:    216 ave 218 max 214 min
Histogram: 1 0 0 0 0 0 0 0 0 1
Nghost:    1948 ave 1948 max 1948 min
Histogram: 2 0 0 0 0 0 0 0 0 0
Neighs:    15090 ave 15197 max 14983 min
Histogram: 1 0 0 0 0 0 0 0 0 1

Total # of neighbors = 30180
Ave neighs/atom = 69.8611
Neighbor list builds = 1
Dangerous builds = 0
Setting up Verlet run ...
  Unit style    : metal
  Current step  : 10000
  Time step     : 0.002
Per MPI rank memory allocation (min/avg/max) = 4.309 | 4.309 | 4.309 Mbytes
Step Temp PotEng TotEng Press Volume v_my_lx f_1 f_2 f_3 f_4 f_5 
   10000    886.52394   -1681.1879   -1631.7986    6516.5091    5117.4747    2.8721072            0            0            0            0            0 
   10100    913.67161    -1682.443   -1631.5413   -538.08834    5141.5549    2.8766051    5152.4768    869.82811   -3296.2683   -1631.7011    2.8786379 
   10200    852.69128   -1678.2537   -1630.7493   -5129.2052    5163.8726    2.8807612    5142.5629    874.84718   -287.41549   -1631.4353    2.8767892 
   10300    915.37659   -1680.5501   -1629.5534    7123.3793    5124.0622    2.8733391    5143.8663    876.53568   -267.12078   -1631.0213    2.8770323 
   10400    915.19828   -1679.1958    -1628.209   -613.76154    5151.6545    2.8784873    5146.3762    880.41197   -735.17608   -1630.4879    2.8775002 
   10500    907.92499   -1677.4024   -1626.8209   -3365.2913    5167.4288    2.8814223     5145.057    886.85532   -35.546067   -1629.8847    2.8772546 
   10600    980.21766   -1680.3472   -1625.7382    6642.9648    5125.9631    2.8736943    5147.2494    890.36312   -234.36903   -1629.2817    2.8776628 
   10700    927.44573   -1676.9155   -1625.2464    -5855.367    5172.9609    2.8824502    5149.0979    894.66915   -447.26596   -1628.7361    2.8780067 
   10800    930.44235   -1676.9882   -1625.1522    -2941.485    5162.8105    2.8805637    5147.9603    899.63906    71.176156   -1628.2864    2.8777949 
   10900    896.04877   -1675.3834   -1625.4636    9220.7438    5120.9546    2.8727581    5149.7476     901.6163   -238.31811   -1627.9524    2.8781275 
   11000    904.67612    -1676.882   -1626.4815   -8773.7205    5186.4566    2.8849547    5150.3337    902.92488   -286.15766   -1627.7507    2.8782361 
   11100     886.4811   -1678.2419    -1628.855    1324.0664    5141.4811    2.8765913    5148.5581    903.57815    189.29585   -1627.7299    2.8779046 
   11200    907.53684   -1682.1833   -1631.6234    11218.029    5097.3169    2.8683312    5149.9132    901.66702    -339.1872   -1627.9419    2.8781565 
   11300    847.43943   -1680.0117   -1632.7999   -16762.349     5201.398    2.8877224    5148.4812    898.46567    -139.3222    -1628.286    2.8778879 
   11400    879.20426   -1682.1059   -1633.1245    9359.7567    5105.1768    2.8698047    5146.7169    895.78658    199.88057   -1628.6252    2.8775576 
   11500    879.17006   -1681.6518   -1632.6722    4247.9163    5127.5619    2.8739931     5148.345    892.85657   -334.87019   -1628.9085    2.8778605 
   11600    843.98626   -1678.5055   -1631.4861   -12969.329    5187.5046     2.885149    5146.6848    892.01288    35.281457   -1629.1052    2.8775505 
   11700    890.24997   -1679.8159   -1630.2191    10147.152    5109.7123    2.8706543    5146.6234    890.97134    19.930369   -1629.2112    2.8775389 
   11800    916.14747   -1680.0067   -1628.9671   -2532.2989    5156.5101    2.8793914    5147.3537    890.56772   -169.37407   -1629.2324    2.8776751 
   11900    868.56728   -1676.1148    -1627.726   -3837.4258    5166.4821    2.8812464    5146.6704    891.31178    36.734806   -1629.1835    2.8775481 
   12000    918.37774   -1677.9839   -1626.8201    6789.5062    5127.7107    2.8740209    5147.1978    892.11487   -53.278148    -1629.087    2.8776467 
   12100    850.68254   -1673.7558   -1626.3633   -2597.8435    5166.7073    2.8812882    5147.6111    893.04705   -98.437832   -1628.9673     2.877724 
   12200    905.31328   -1676.6002   -1626.1642   -443.75809    5156.6983    2.8794265    5147.4597    893.99263    21.750794   -1628.8424    2.8776962 
   12300    933.33765   -1678.2528   -1626.2555    3246.9212    5135.5397    2.8754828    5148.0965    894.88241   -83.999323   -1628.7267    2.8778151 
   12400    896.62744   -1676.7107   -1626.7586   -4074.3347    5171.4944    2.8821778    5148.0472    895.89689   -36.618361   -1628.6329    2.8778061 
   12500    921.07615   -1679.1704   -1627.8562    2208.4059    5136.9837    2.8757523     5147.973    896.40864    9.3773408   -1628.5778    2.8777926 
   12600    904.68547   -1680.4754   -1630.0743    2738.6605    5139.6507    2.8762499    5148.1758    896.37188   -75.919036   -1628.5883    2.8778307 
   12700    875.63359   -1681.6811   -1632.8985   -5384.1316    5159.0309    2.8798605    5147.9011    895.54693   -35.575497   -1628.6984    2.8777797 
   12800    869.74376   -1682.7066   -1634.2522    2797.5155    5122.4826    2.8730438    5147.4315    894.16533  -0.37621825   -1628.8779    2.8776924 
   12900    856.75802   -1682.0776   -1634.3466   -515.18449    5139.4589    2.8762141    5147.3454    892.49765   -68.107925   -1629.0673    2.8776766 
   13000     833.2131   -1680.1247   -1633.7055   -3187.6247    5150.1368    2.8782047    5146.8687     891.3639   -14.713685    -1629.234    2.8775879 
   13100    856.32808   -1680.2466   -1632.5396    5397.7836    5123.4888    2.8732319    5146.6169    890.40664   -18.474737   -1629.3607    2.8775411 
   13200    803.82162    -1675.965   -1631.1832   -959.55633    5155.6148    2.8792248    5146.7757    889.49885    -75.51198    -1629.439    2.8775709 
   13300    902.41851   -1680.1108    -1629.836   -3332.0521    5160.1014    2.8800597    5146.3884    889.55371     27.11177     -1629.47    2.8774988 
   13400    917.96688   -1679.7973   -1628.6563    8934.2669    5113.0014    2.8712701    5146.6489    889.55897   -34.846763   -1629.4629    2.8775473 
   13500    895.28975   -1677.7432   -1627.8656   -6210.7307    5172.4539     2.882356    5146.8394    889.71096   -81.372252   -1629.4282    2.8775828 
   13600    944.16717   -1679.9171   -1627.3164   -2506.5975    5150.4294    2.8782592    5146.4188    890.23574    40.425774   -1629.3758    2.8775044 
   13700    939.83657   -1679.2603    -1626.901    6008.4085    5124.4329    2.8734084    5146.9284    890.70349   -69.062971   -1629.3136    2.8775994 
   13800    865.47905    -1674.879   -1626.6622   -9488.1621    5194.5575     2.886456    5146.9533    891.06284   -36.308766   -1629.2475    2.8776039 
   13900    942.44123    -1679.248   -1626.7435    8486.5346    5120.5556    2.8726835    5146.6981    891.55523    57.123886    -1629.182    2.8775562 
   14000    922.25061   -1678.3808   -1627.0012     3749.491    5135.1505    2.8754102    5147.4282    892.01405   -113.77213   -1629.1223     2.877692 
   14100    875.28644   -1676.2282    -1627.465   -12514.678    5198.8614    2.8872529    5147.0678    892.50647    13.395728    -1629.074    2.8776246 
   14200    894.98491    -1678.932   -1629.0714    12967.033    5099.9619    2.8688272    5147.0986     892.5929    13.278168   -1629.0541    2.8776301 
   14300    852.00039   -1678.9686   -1631.5027   -5293.0845    5162.1645    2.8804435    5147.4157    892.22609   -82.851763   -1629.0838    2.8776891 
   14400    861.88374   -1681.1418   -1633.1253   -4806.8318    5157.7703     2.879626    5146.8441    891.79247    38.980288   -1629.1585    2.8775825 
   14500    909.65438   -1684.3376   -1633.6597    6929.4646    5111.0442    2.8709037    5146.9746    890.90103   -30.807145   -1629.2544    2.8776068 
   14600    825.97412   -1679.5301   -1633.5142   -3559.3337    5158.4602    2.8797544     5146.809    889.99993   -27.692209   -1629.3503     2.877576 
   14700    864.14926   -1680.6569   -1632.5142    1609.1992     5138.231    2.8759851    5146.5802    889.43153    10.458367   -1629.4292    2.8775335 
   14800    921.69154   -1682.2032   -1630.8547     1627.952    5134.8405    2.8753523    5146.6373    889.00435   -26.031949   -1629.4768    2.8775443 
   14900    911.63196   -1679.9459   -1629.1578   -4167.9848    5161.6506    2.8803479    5146.5722    889.01566   -11.936279   -1629.4869    2.8775323 
   15000    919.14345   -1679.2052   -1627.9987    575.78071    5142.2446    2.8767337    5146.5833    889.22415    -1.772897   -1629.4677    2.8775345 
   15100    944.71222   -1680.0174   -1627.3864   -158.58014    5147.1145    2.8776415    5146.7058     889.5935   -26.961062    -1629.432    2.8775575 
   15200     938.6241   -1679.4361   -1627.1443   -2894.7576     5160.458    2.8801261    5146.7196    889.89432   -11.312899   -1629.3901    2.8775602 
   15300    965.36039   -1680.9353    -1627.154    167.95681    5143.3735    2.8769442    5146.7467    890.32289   -3.0115127   -1629.3476    2.8775654 
   15400     880.6032   -1676.4486   -1627.3892    1062.8357    5148.0781    2.8778211    5146.9024    890.69182   -30.208711   -1629.3089    2.8775945 
   15500     901.8147   -1677.9921    -1627.751   -747.49532    5159.5314    2.8799537    5146.8578    891.01305   -7.1114718    -1629.277    2.8775864 
   15600    904.73594   -1678.7042   -1628.3003    3725.8924    5136.8073    2.8757194    5146.9883    891.21258   -17.949202   -1629.2546    2.8776108 
   15700    880.85246   -1678.2885   -1629.2152   -1118.7209    5157.4981    2.8795753    5147.0673    891.42629   -30.303628   -1629.2453    2.8776256 
   15800    921.30653   -1681.9701   -1630.6431   -3907.4744    5153.7692    2.8788812    5147.0213    891.40194   -11.298762   -1629.2562    2.8776171 
   15900    876.27365   -1681.4632    -1632.645    1801.9085    5137.5505    2.8758581    5147.0245    891.02237   -16.264066   -1629.2965    2.8776178 
   16000    839.46901   -1681.1846   -1634.4168   -985.38016    5143.5977     2.876986    5146.9596    890.47052   -23.531367   -1629.3683    2.8776059 
   16100    798.96489   -1679.7547   -1635.2434    198.81294    5140.0593    2.8763261    5146.8004    889.76041   -10.417675   -1629.4591    2.8775763 
   16200    828.74923   -1681.2367   -1635.0662    1824.2407    5134.7683    2.8753388    5146.7209    888.93336   -19.105637   -1629.5522    2.8775616 
   16300    874.62251   -1682.6928   -1633.9666   -3311.1968    5153.9317    2.8789114    5146.6489    888.33623   -19.519492   -1629.6323    2.8775482 
   16400    788.17684   -1676.0075   -1632.0973    4962.7799    5137.8103    2.8759066    5146.4933    887.93251    9.3031101   -1629.6856    2.8775193 
   16500    878.54688   -1679.2772   -1630.3323    5608.3382    5127.6928    2.8740175    5146.6506    887.79813   -37.133164   -1629.7079    2.8775487 
   16600    917.84469    -1680.599   -1629.4649   -7403.4898    5174.0977    2.8826613    5146.5901    887.75559   -18.212192   -1629.7099    2.8775374 
   16700    849.92775     -1676.36   -1629.0096    6584.4862    5130.5585    2.8745528    5146.5333    887.86425    4.0420151   -1629.7028    2.8775269 
   16800    891.62184   -1678.3022   -1628.6289    284.08139    5143.9774    2.8770568    5146.7011    887.98343   -39.638305   -1629.6897    2.8775582 
   16900    893.54794    -1677.925   -1628.1444    -5150.177    5173.6332    2.8825751    5146.5929    888.19433   -3.3963585   -1629.6708     2.877538 
   17000    894.63915   -1677.4237   -1627.5823    8073.4979    5122.4897    2.8730451    5146.7128    888.24872   -13.816912   -1629.6454    2.8775604 
   17100    919.18766   -1678.2933   -1627.0843   -5139.9363    5164.8956    2.8809514    5146.8052    888.57467    -34.69345   -1629.6128    2.8775776 
   17200    942.84313   -1679.1429    -1626.616   -5384.9793    5162.4315    2.8804932    5146.7106    888.93755    6.1090777   -1629.5744    2.8775601 
   17300    961.26763   -1679.7747   -1626.2214     6004.026    5123.3761    2.8732108    5146.8465    889.21342    -19.64662   -1629.5311    2.8775854 
   17400    913.22005   -1676.9356   -1626.0591   -6768.1238    5173.3463    2.8825218    5146.9499    889.55953   -33.307539   -1629.4851    2.8776047 
   17500    964.71728   -1679.8564   -1626.1109    -2898.723    5155.5481    2.8792124    5146.8549    890.03875    9.1058195   -1629.4393     2.877587 
   17600    887.70497   -1675.9954   -1626.5404    8378.8317    5129.9149    2.8744327    5147.0578    890.28175   -28.482268   -1629.3979    2.8776248 
   17700    897.09484   -1677.5345   -1627.5564   -6139.2727      5168.97    2.8817088    5147.0913    890.49869   -27.540331   -1629.3668    2.8776311 
   17800    909.60897   -1679.7144   -1629.0391   -79.995909    5146.6134    2.8775481    5146.9916    890.65531    6.9744357   -1629.3526    2.8776126 
   17900    863.48346   -1678.5947    -1630.489    6293.5922    5125.1361    2.8735398    5147.0917    890.47385   -24.572357   -1629.3582    2.8776313 
   18000    850.86801   -1678.9977   -1631.5949   -5354.6205    5166.9766    2.8813383     5147.025    890.37048   -20.545982   -1629.3799    2.8776189 
   18100    912.31172   -1683.0159     -1632.19    2104.5846    5127.8514    2.8740472    5146.8801    890.07444    3.5960498   -1629.4115    2.8775919 
   18200    818.18268   -1677.8766   -1632.2947    3489.3587    5130.3332    2.8745108      5146.93    889.83031   -33.762416   -1629.4465    2.8776012 
   18300    875.30458   -1680.4682    -1631.704   -9766.5628    5172.5699    2.8823776    5146.7641    889.55202   -8.3433629    -1629.478    2.8775703 
   18400    892.73547   -1679.8689   -1630.1336    6497.5936    5120.6155    2.8726947    5146.6772    889.45095    5.5743899   -1629.4966    2.8775541 
   18500    914.54427    -1678.549   -1627.5987   -1020.3501    5149.1469    2.8780202    5146.8688    889.36276   -41.210429   -1629.4895    2.8775898 
   18600    946.07728   -1678.2125   -1625.5055   -9620.8142    5185.6961    2.8848137    5146.7548     889.7425    6.2861338   -1629.4535    2.8775685 
   18700    936.63748   -1676.8646   -1624.6835     9348.314    5121.1373    2.8727923    5146.8844    890.14052   -3.2268387   -1629.4026    2.8775926 
   18800    936.60242   -1676.8944   -1624.7152   -6380.4674    5174.1107    2.8826638      5147.11    890.45658   -35.316946   -1629.3489    2.8776346 
   18900    874.23784   -1673.9031   -1625.1983   -1153.5023    5165.5727    2.8810773    5147.0089    890.98282    17.272331   -1629.2985    2.8776158 
   19000    937.68059   -1678.1171   -1625.8779    9303.6203     5122.247    2.8729998    5147.2778    891.23951   -23.597941   -1629.2564    2.8776658 
   19100    877.56571    -1675.966   -1627.0758   -6727.0207    5178.4286    2.8834654     5147.353    891.53445   -29.023922   -1629.2258    2.8776798 
   19200    945.94573    -1681.146   -1628.4463   -2463.3023    5153.8885    2.8789034    5147.2549    891.80291    11.391413   -1629.2096    2.8776615 
   19300    921.86609   -1680.9609   -1629.6027    8300.2391    5120.6139    2.8726944    5147.4139    891.75144   -24.032098   -1629.2081    2.8776911 
   19400     841.5626   -1677.3367   -1630.4523   -7250.2314     5170.221    2.8819412    5147.3989    891.66624   -21.506491   -1629.2173    2.8776883 
   19500    884.44627   -1680.1575    -1630.884     2129.623    5142.3715    2.8767574     5147.292    891.60962    6.4575487   -1629.2329    2.8776684 
   19600    853.40252   -1678.4165   -1630.8725    5099.4495    5131.2491    2.8746818    5147.3735     891.3837   -19.335451   -1629.2504    2.8776836 
   19700     907.6528   -1681.0837   -1630.5173   -5076.7001    5163.2268    2.8806411    5147.3385    891.30627   -13.069598   -1629.2656    2.8776772 
   19800    888.22593   -1679.4096   -1629.9255    2696.7806    5137.0942    2.8757729    5147.2795    891.27999  -0.24896404   -1629.2755    2.8776662 
   19900    937.88627    -1681.342   -1629.0913    685.12015    5140.4945    2.8764073    5147.3589    891.28439   -25.361337    -1629.278    2.8776811 
Finished 900 K - next row contains averaged properties
   20000    894.18911   -1677.7607   -1627.9444   -6516.8752     5170.606    2.8820128    5147.3001    891.34752   -7.2592836   -1629.2707    2.8776701 
Loop time of 5.96152 on 2 procs for 10000 steps with 432 atoms

Performance: 289.859 ns/day, 0.083 hours/ns, 1677.424 timesteps/s
99.7% CPU use with 2 MPI tasks x 1 OpenMP threads

MPI task timing breakdown:
Section |  min time  |  avg time  |  max time  |%varavg| %total
---------------------------------------------------------------
Pair    | 5.1824     | 5.2325     | 5.2826     |   2.2 | 87.77
Neigh   | 0.001271   | 0.0012864  | 0.0013018  |   0.0 |  0.02
Comm    | 0.34378    | 0.39249    | 0.4412     |   7.8 |  6.58
Output  | 0.03026    | 0.030492   | 0.030723   |   0.1 |  0.51
Modify  | 0.2613     | 0.26177    | 0.26224    |   0.1 |  4.39
Other   |            | 0.043      |            |       |  0.72

Nlocal:    216 ave 216 max 216 min
Histogram: 2 0 0 0 0 0 0 0 0 0
Nghost:    1879 ave 1897 max 1861 min
Histogram: 1 0 0 0 0 0 0 0 0 1
Neighs:    14943 ave 14965 max 14921 min
Histogram: 1 0 0 0 0 0 0 0 0 1

Total # of neighbors = 29886
Ave neighs/atom = 69.1806
Neighbor list builds = 3
Dangerous builds = 0
System init for write_data ...
Setting up Verlet run ...
  Unit style    : metal
  Current step  : 0
  Time step     : 0.002
Per MPI rank memory allocation (min/avg/max) = 4.309 | 4.309 | 4.309 Mbytes
Step Temp PotEng TotEng Press Volume 
       0         1200   -1677.7607   -1610.9073   -2997.4439     5170.606 
     100    1064.2547   -1669.0018    -1609.711   -4395.6405    5195.4174 
     200    1103.2611   -1667.9546   -1606.4907    2359.2173    5180.6444 
     300    1078.9775   -1663.8718   -1603.7607   -2437.0702    5203.8637 
     400    1138.9229   -1664.9682   -1601.5175    1810.2064    5186.6094 
     500    1166.3434   -1664.0007   -1599.0224   -5066.8867    5212.4471 
     600    1156.2106   -1660.6981   -1596.2843    3416.9672    5194.0661 
     700    1152.7908     -1657.92   -1593.6967    590.83549      5215.65 
     800    1199.2986   -1658.1709   -1591.3566   -1731.9529    5215.5294 
     900    1223.7414   -1657.5541   -1589.3781    2585.1661    5208.8914 
    1000    1254.9347   -1657.8053   -1587.8915   -6499.8915    5243.3547 
    1100     1224.952   -1655.1364   -1586.8929     8309.153    5194.1689 
    1200    1238.8592   -1655.4413   -1586.4231   -10934.039    5263.9995 
    1300    1333.8514   -1660.8156   -1586.5053    8834.2528    5179.6099 
    1400    1226.5109   -1655.8918   -1587.5615   -12699.637    5270.8369 
    1500    1289.2367   -1661.1063   -1589.2815    10076.005    5170.2069 
    1600    1146.8028    -1655.542   -1591.6524   -9920.4708    5257.4597 
    1700     1199.133   -1660.2573   -1593.4523    11733.424    5169.8866 
    1800    1155.7069   -1659.1333   -1594.7476   -7556.6764    5240.8062 
    1900    1196.1333   -1661.9274   -1595.2895    6189.7167    5179.6243 
    2000      1180.12   -1661.0646   -1595.3188   -2350.5468    5218.6681 
    2100    1180.1144   -1660.5517   -1594.8062    270.77349    5206.1414 
    2200     1182.589   -1659.5783   -1593.6949   -169.75102    5210.2868 
    2300    1181.5843   -1657.2003   -1591.3729    441.79364    5220.1722 
    2400    1250.1778   -1657.0682   -1587.4194     1370.677    5213.6907 
    2500    1224.2804    -1652.615    -1584.409   -1359.7867     5238.011 
    2600    1239.8579   -1652.7637   -1583.6898    5071.4139    5212.3069 
    2700    1181.2244   -1649.9817   -1584.1743   -3353.7025     5252.933 
[...]
    7300    1210.4585   -1655.0949   -1587.6589    3965.3613    5208.4444 
    7400     1255.246   -1656.1679   -1586.2367   -3957.3188    5236.4398 
    7500      1274.87   -1656.3593   -1585.3348    2017.0346     5217.694 
    7600    1233.9393   -1653.8962    -1585.152     870.8913    5224.2837 
    7700    1256.8857   -1655.7648   -1585.7423   -3790.2958    5242.2806 
    7800    1183.2257   -1653.3697   -1587.4508    9283.5495    5190.7526 
    7900    1200.8735   -1657.0627   -1590.1607   -7982.6232    5254.8111 
    8000    1191.4707    -1659.072   -1592.6938    12823.139    5164.8386 
    8100    1101.7089    -1655.645   -1594.2675   -10106.514    5258.0251 
    8200    1173.1148   -1660.1464   -1594.7909     13139.43    5160.7991 
    8300    1140.6887   -1658.2866   -1594.7376   -9969.6976    5253.2323 
    8400    1178.7722   -1659.7233   -1594.0525     10196.85    5171.7135 
    8500    1159.9537   -1657.7611   -1593.1387   -5910.3938    5236.2536 
    8600    1129.8618   -1654.8787   -1591.9328    6302.2023    5195.2569 
    8700    1175.0943   -1656.1263   -1590.6605   -45.752794    5218.1533 
    8800    1222.9873   -1657.6263   -1589.4923   -267.07489    5221.0685 
    8900      1198.01   -1655.4662   -1588.7237    1014.9223     5212.118 
    9000    1189.7125   -1654.6019   -1588.3217   -2921.3398    5233.6888 
    9100    1207.0325   -1655.4773   -1588.2322    4069.8134    5204.0487 
    9200    1213.0358   -1656.2405    -1588.661   -3221.6281    5234.2005 
    9300    1237.7642   -1659.6288   -1590.6716      1371.48    5207.6253 
    9400    1159.8051   -1659.4394   -1594.8253   -2838.8276    5216.8482 
    9500    1119.1439   -1659.8505   -1597.5018    3608.9089    5191.3563 
    9600    1145.5792    -1662.425   -1598.6035   -2841.6042    5205.3709 
    9700    1143.8291   -1662.3051   -1598.5811    531.69513    5202.6719 
    9800    1173.1151   -1662.8034   -1597.4478     1034.325    5203.7574 
    9900    1105.0009   -1656.9396   -1595.3788   -1540.0993    5218.1583 
   10000    1141.0705   -1656.4522   -1592.8819    5881.9823    5195.7111 
Loop time of 5.3851 on 2 procs for 10000 steps with 432 atoms

Performance: 320.886 ns/day, 0.075 hours/ns, 1856.977 timesteps/s
99.8% CPU use with 2 MPI tasks x 1 OpenMP threads

MPI task timing breakdown:
Section |  min time  |  avg time  |  max time  |%varavg| %total
---------------------------------------------------------------
Pair    | 4.7347     | 4.7712     | 4.8076     |   1.7 | 88.60
Neigh   | 0.053902   | 0.054965   | 0.056029   |   0.5 |  1.02
Comm    | 0.31858    | 0.35446    | 0.39034    |   6.0 |  6.58
Output  | 0.030145   | 0.030324   | 0.030503   |   0.1 |  0.56
Modify  | 0.13906    | 0.14004    | 0.14102    |   0.3 |  2.60
Other   |            | 0.03415    |            |       |  0.63

Nlocal:    216 ave 218 max 214 min
Histogram: 1 0 0 0 0 0 0 0 0 1
Nghost:    1876 ave 1882 max 1870 min
Histogram: 1 0 0 0 0 0 0 0 0 1
Neighs:    14863 ave 14958 max 14768 min
Histogram: 1 0 0 0 0 0 0 0 0 1

Total # of neighbors = 29726
Ave neighs/atom = 68.8102
Neighbor list builds = 124
Dangerous builds = 0
Setting up Verlet run ...
  Unit style    : metal
  Current step  : 10000
  Time step     : 0.002
Per MPI rank memory allocation (min/avg/max) = 4.309 | 4.309 | 4.309 Mbytes
Step Temp PotEng TotEng Press Volume v_my_lx f_1 f_2 f_3 f_4 f_5 
   10000    1141.0705   -1656.4522   -1592.8819    5881.9823    5195.7111    2.8866696            0            0            0            0            0 
   10100    1168.9856   -1656.0222   -1590.8967   -4087.3718    5237.7468    2.8944335    5212.3985    1197.8446     643.3027   -1591.8376     2.889754 
   10200    1257.3042   -1659.5008   -1589.4549    3951.2546    5189.8778    2.8855889    5213.8202    1199.5667    309.51044   -1590.9887    2.8900159 
   10300    1194.9102   -1655.1411   -1588.5713   -4373.6323    5250.5887    2.8967971    5216.3894    1206.6569   -7.3601808   -1590.3278    2.8904897 
   10400    1275.4609   -1659.0667   -1588.0094     3921.696    5193.8592    2.8863266    5217.8562    1210.3898    46.416268   -1589.8189    2.8907605 
   10500    1151.0567   -1652.1258   -1587.9992    -6919.761    5262.3985    2.8989674    5219.8235    1212.0286   -39.575212   -1589.4587    2.8911229 
   10600    1225.8275   -1656.6048   -1588.3125     9416.168     5184.561    2.8846032    5219.3549    1213.5976    197.58748   -1589.2453    2.8910356 
   10700    1135.6247   -1652.6821   -1589.4152   -6556.8566    5248.3421    2.8963839    5220.5649    1213.8759   -217.67904    -1589.186    2.8912587 
   10800    1164.1785   -1656.3239   -1591.4662     5180.563    5202.3122    2.8878916    5218.6882    1213.2049    318.13918   -1589.3296    2.8909122 
   10900    1151.3811   -1658.6548   -1594.5101    939.65597    5213.9392    2.8900414     5220.196    1209.2092   -254.97092   -1589.7336    2.8911909 
   11000    1120.6798   -1659.4163    -1596.982   -664.95446    5209.7757     2.889272    5217.0592     1205.468    260.97179   -1590.3423    2.8906111 
   11100    1201.1099   -1664.8753   -1597.9602    2588.0431    5183.1981    2.8843504     5217.473    1199.5659   -230.14891   -1590.9993    2.8906878 
   11200    1069.2678   -1657.4407   -1597.8706   -5754.4434    5234.7785    2.8938867     5214.401    1195.0974    273.36344    -1591.577    2.8901192 
   11300    1196.7429   -1663.4462   -1596.7743    13873.677    5150.0736    2.8781929    5215.0782    1191.6337   -156.87313   -1592.0254    2.8902437 
   11400    1126.5914   -1658.0604   -1595.2967   -17341.533    5279.4474    2.9020946    5213.4961    1188.9874    119.68357    -1592.323    2.8899495 
   11500    1201.6676   -1660.5538   -1593.6075    20565.102     5124.355    2.8733938    5213.3195    1187.7665     45.77265   -1592.4783    2.8899148 
   11600    1188.4604   -1658.6158   -1592.4053   -22545.755     5298.933    2.9056606    5213.6062    1186.6516   -25.538385   -1592.5263    2.8899655 
   11700     1256.852   -1661.6386    -1591.618    15634.437    5148.9599    2.8779854    5212.6774    1186.3866    229.81803   -1592.5052    2.8897923 
   11800    1178.0716   -1656.7011   -1591.0694   -11540.489    5255.8489    2.8977642     5213.923    1186.8603   -102.02563   -1592.4426     2.890022 
   11900    1241.0485   -1659.6742    -1590.534    4816.2957    5196.3917    2.8867957    5212.8157    1187.5751    223.70572   -1592.3552    2.8898175 
   12000    1229.1686   -1658.5677   -1590.0893   -1052.8939    5221.1483    2.8913728    5214.0973    1188.4043   -85.216492   -1592.2501    2.8900546 
   12100    1204.3859    -1656.903   -1589.8053   -1397.8328    5227.0509     2.892462    5213.4346    1189.6661    167.07776   -1592.1367    2.8899328 
   12200    1266.9793   -1660.2673   -1589.6825     4585.467    5197.3059    2.8869649    5214.4092    1190.2195   -66.647778    -1592.027    2.8901132 
   12300    1215.3593   -1657.3631   -1589.6541    -9488.122    5242.9274    2.8953875    5213.8954    1191.2843    90.020393   -1591.9236    2.8900186 
   12400    1214.8589   -1657.5076   -1589.8265    8555.0432    5191.2642    2.8858458    5214.2964     1191.796    26.590546   -1591.8329    2.8900931 
   12500    1228.2273   -1658.8517   -1590.4258   -7397.4625     5242.938    2.8953895    5214.4651    1192.0438    15.624059   -1591.7642    2.8901246 
   12600    1180.7077   -1657.3561   -1591.5776    5945.2465    5189.6765    2.8855516     5214.222     1192.591    78.879832   -1591.7338    2.8900801 
   12700    1183.0633   -1659.0204   -1593.1106   -4636.2357    5237.6155    2.8944094    5214.6929    1191.7296   -27.660722   -1591.7576    2.8901674 
   12800    1166.4976   -1659.4247   -1594.4378    6185.4625    5192.0487    2.8859912       5214.1    1191.3584    95.354537   -1591.8307     2.890058 
   12900    1096.9031   -1656.6096   -1595.4999   -483.94083    5218.7495    2.8909299    5214.5087    1190.3439   -48.801741     -1591.94    2.8901339 
   13000    1138.1294   -1659.2734   -1595.8669    1789.9635    5203.4833    2.8881083    5213.6469    1189.5088    111.02363    -1592.065    2.8899747 
   13100    1146.4411   -1659.4768   -1595.6073     2318.634    5199.0766    2.8872928     5214.034    1188.3807   -56.147343   -1592.1845    2.8900466 
   13200    1161.8228   -1659.0791   -1594.3527   -2983.1721    5227.7971    2.8925996     5213.366    1187.5504    90.793684   -1592.2729    2.8899233 
   13300    1268.4344   -1662.7952   -1592.1292    2650.5592     5191.355    2.8858627    5213.6615    1187.4019    -4.578901   -1592.3039    2.8899781 
   13400    1210.6161   -1657.0338    -1589.589   -5756.3358    5241.6131    2.8951456    5213.4896     1187.829    48.001625   -1592.2612    2.8899466 
   13500    1253.2571   -1657.4145   -1587.5942    5198.8906    5205.4298    2.8884684    5213.8502    1188.6535    30.483558   -1592.1542    2.8900134 
   13600    1258.1589   -1656.7766   -1586.6832   -6245.6399    5241.9182    2.8952017    5214.1174    1190.0646    24.803592   -1592.0125     2.890063 
   13700    1212.8203    -1654.076   -1586.5085    4654.1127    5207.9693     2.888938    5214.3683    1191.2846    35.368649   -1591.8649    2.8901096 
   13800     1263.541   -1657.2398   -1586.8465    -8049.552    5247.0845    2.8961526    5214.8247    1192.1107    -13.45745   -1591.7279    2.8901941 
   13900    1214.9439   -1655.3637   -1587.6778    9648.3758    5190.5768    2.8857185    5214.5098    1193.1184    99.591263   -1591.6123    2.8901359 
   14000    1213.8584   -1656.4698   -1588.8443   -6578.1013     5246.645    2.8960717    5215.3504    1193.8468    -76.85609   -1591.5272     2.890291 
   14100    1173.3753   -1655.3138   -1589.9438    3978.5942    5206.6655    2.8886969    5214.7205    1194.3182    125.74787   -1591.4724    2.8901746 
   14200    1219.4741   -1658.7951   -1590.8569    1135.6318    5212.5378    2.8897825    5215.5148    1194.1138   -64.493709   -1591.4459    2.8903212 
   14300    1161.5983   -1656.2187   -1591.5048   -5503.8482    5236.5341    2.8942101    5214.9048    1194.5146    106.59315   -1591.4382    2.8902085 
   14400    1271.5612   -1662.4134   -1591.5733    8178.6513    5180.4573    2.8838419    5215.4358    1194.1099   -31.545599    -1591.441    2.8903065 
   14500    1193.1228   -1658.0416   -1591.5714   -12613.013    5266.3925    2.8997006    5215.1578    1194.2576    58.088251   -1591.4453     2.890255 
   14600    1212.1401   -1658.9229   -1591.3932    12306.262     5165.205    2.8810089     5215.383    1194.3105    1.9847304   -1591.4479    2.8902965 
   14700    1152.1667   -1655.5495    -1591.361   -12307.326    5267.6481     2.899931    5215.3869    1194.3401    15.983345   -1591.4483    2.8902971 
   14800    1231.1104   -1659.7921   -1591.2056    11778.216    5166.5868    2.8812658    5215.2304    1194.4421    51.710631   -1591.4466    2.8902681 
   14900     1170.636   -1656.4166   -1591.1992   -8157.5376    5252.9809     2.897237    5215.4721    1194.4367   -12.122015   -1591.4429    2.8903127 
   15000     1247.036   -1660.4021   -1590.9283    5550.4335    5187.7579     2.885196    5215.2331    1194.7101    58.230111   -1591.4352    2.8902686 
   15100     1235.671    -1659.567   -1590.7264    -7528.587    5241.2446    2.8950777    5215.5527    1194.6715   -11.546124   -1591.4238    2.8903277 
   15200    1224.6002   -1658.3993   -1590.1754    2714.5238    5199.4395    2.8873599    5215.2913    1194.8384    60.048776   -1591.4053    2.8902795 
   15300    1209.1766   -1656.6859   -1589.3213   -2440.5325    5236.2117    2.8941507    5215.6142    1195.0815     2.153267   -1591.3745    2.8903393 
   15400    1259.5788   -1658.2104   -1588.0379    4418.2991    5207.4434    2.8888407    5215.5457    1195.4273    47.464485   -1591.3248    2.8903268 
   15500    1206.7876   -1653.8469   -1586.6154   -2284.1687    5239.6987     2.894793    5215.9288    1195.8934   -2.9135312   -1591.2521    2.8903977 
   15600    1277.0233   -1656.3853   -1585.2409    1509.4061    5209.3194    2.8891876    5215.8942    1196.7661    30.466375   -1591.1564    2.8903915 
   15700    1247.4641   -1654.0857    -1584.588   -5425.4701    5243.0998    2.8954193    5216.1814    1197.6292    -2.041946   -1591.0462    2.8904446 
   15800     1235.276   -1653.6214   -1584.8028    3713.3077    5214.4946    2.8901441     5216.182    1198.7535    37.414178   -1590.9349    2.8904449 
   15900    1179.7276   -1651.9032   -1586.1792    -580.3164    5235.3447     2.893991    5216.5214    1199.2858   -3.8394122   -1590.8408    2.8905077 
   16000    1241.1621   -1657.7604   -1588.6139   -385.97993    5220.5759    2.8912671    5216.5812     1199.688    23.294967    -1590.782    2.8905189 
   16100    1237.3802   -1660.2658     -1591.33   -1683.2721    5214.8342    2.8902068    5216.6847    1199.5956    1.4197758   -1590.7695    2.8905382 
   16200    1154.5046   -1657.5485   -1593.2298    599.30393    5211.3565    2.8895642    5216.5157    1199.4128    24.258887   -1590.7954    2.8905071 
   16300    1180.8029   -1659.9025   -1594.1187    3412.3247     5199.154    2.8873071    5216.4399     1199.062    2.5647117   -1590.8424    2.8904932 
   16400    1164.9377   -1659.1684   -1594.2684   -4049.6385    5219.9909    2.8911592    5216.2693    1198.5658    11.382917   -1590.8958    2.8904619 
   16500     1099.729   -1655.2255   -1593.9583    5448.4811    5199.1836    2.8873126    5216.1244    1198.2274    17.970486   -1590.9458    2.8904352 
   16600    1175.4301   -1658.8045   -1593.3199    2054.1656    5211.2008    2.8895354    5216.0925    1197.9552    0.7834473   -1590.9867    2.8904295 
   16700    1164.6621   -1657.1868   -1592.3022    156.48693    5216.5874    2.8905306    5216.0072    1197.7301    16.038026   -1591.0143    2.8904139 
   16800    1218.3511   -1658.8578   -1590.9821   -1063.9155    5210.9351    2.8894863    5216.0413    1197.5367   0.42839668   -1591.0239    2.8904203 
   16900    1160.4039   -1653.9774     -1589.33   -255.78614    5226.7447    2.8924055    5215.9431     1197.592    29.518886   -1591.0116    2.8904023 
   17000     1291.869   -1659.1279   -1587.1564    121.12683    5213.7171    2.8900004    5216.1436     1197.826    -1.145949   -1590.9725    2.8904394 
   17100    1200.8251   -1651.4523    -1584.553   -2292.8256    5241.2141    2.8950721    5216.1768     1198.486    23.159588   -1590.9007    2.8904457 
   17200     1330.876   -1655.8577   -1581.7131    2812.6262    5213.4874     2.889958    5216.4379    1199.3408    1.1526261   -1590.7927    2.8904939 
   17300    1221.0172   -1647.4664   -1579.4422   -1850.7194    5252.0862    2.8970725    5216.6354     1200.507    11.292286   -1590.6517    2.8905305 
   17400    1318.2523   -1651.2769   -1577.8356    1901.4504    5231.1763    2.8932227    5217.0045    1201.6635    2.7875456   -1590.4886    2.8905986 
   17500    1316.4513    -1650.364    -1577.023   -2678.1564    5251.4061    2.8969475    5217.2889    1203.1899    5.7345259   -1590.3131    2.8906512 
   17600    1256.5732   -1648.1957   -1578.1906     3371.868    5236.4717    2.8941986    5217.6477    1204.3949    1.8791039   -1590.1432    2.8907175 
   17700    1274.7255   -1652.7779   -1581.7615   -2914.4171    5247.9951    2.8963201    5217.9161    1205.1935    11.511189     -1590.01    2.8907671 
   17800    1295.2941   -1657.5639   -1585.4016    1580.8883    5209.4919    2.8892195    5218.1011    1205.7937    6.7045759   -1589.9293    2.8908013 
   17900    1265.7692   -1658.5692   -1588.0518   -8215.9807    5250.1551    2.8967174    5218.2072    1206.1226    2.3414676   -1589.8902    2.8908209 
   18000    1206.6389   -1657.1702    -1589.947     7223.644    5187.4815    2.8851447    5218.1884    1206.0354     16.47891     -1589.88    2.8908175 
   18100    1181.4713   -1657.3671    -1591.546   -8365.8843    5247.2289    2.8961791    5218.2797     1205.888   -14.425701   -1589.8917    2.8908344 
   18200     1188.518   -1658.9601   -1592.7464    7806.8604    5180.2233    2.8837985    5218.0298    1205.7493    33.264246   -1589.9194    2.8907882 
   18300    1133.5198   -1656.8342   -1593.6845   -4257.0302    5236.6689     2.894235    5218.1568    1205.2875   -18.146691   -1589.9597    2.8908117 
   18400    1111.2349   -1656.1583   -1594.2502    6773.4601    5183.0883      2.88433    5217.8228    1205.0472    35.319419   -1590.0074    2.8907499 
   18500    1202.1176   -1661.3877   -1594.4163   -9536.1134    5231.2694    2.8932399    5217.9695    1204.3997   -26.528483   -1590.0586     2.890777 
   18600    1158.7531   -1658.5051   -1593.9496     3477.088     5199.942    2.8874529    5217.5689    1204.1761    49.559987   -1590.1062     2.890703 
   18700     1165.954   -1657.6776    -1592.721    789.51251    5211.5417    2.8895984    5217.8573    1203.7392   -36.255086   -1590.1432    2.8907562 
   18800    1182.0311   -1656.5584   -1590.7061   -5261.3831    5233.2675    2.8936082    5217.4892    1203.6959    49.405654   -1590.1604    2.8906881 
   18900    1214.1563   -1655.9732   -1588.3312    7728.4074    5190.8339    2.8857661    5217.7639     1203.773   -19.540171   -1590.1526    2.8907388 
   19000    1180.7188    -1652.275   -1586.4959   -7836.4145    5257.0835    2.8979911    5217.6273    1204.0301    28.230468   -1590.1212    2.8907136 
   19100    1199.8437   -1652.2302   -1585.3855    10731.626    5187.2752    2.8851065    5217.8279    1204.3934   -5.9254945   -1590.0748    2.8907506 
   19200    1205.4405   -1652.2524    -1585.096   -8148.4669    5266.1696    2.8996597    5217.8482     1204.695    13.090023   -1590.0221    2.8907543 
   19300    1234.5923    -1654.242   -1585.4614    12053.457    5176.8067    2.8831644    5217.9045    1205.0081    12.154984   -1589.9711    2.8907647 
   19400     1199.857   -1653.6146   -1586.7692   -8992.2868    5260.9419    2.8986999    5218.0081    1205.3922   -2.1567113     -1589.93    2.8907838 
   19500    1266.9229   -1659.6369   -1589.0552    5452.9887    5188.5792    2.8853482    5217.9709    1205.5168    17.195363   -1589.9079    2.8907769 
   19600    1183.9114   -1658.6157   -1592.6587   -7372.3042    5239.0467     2.894673    5218.0317    1205.3709   -3.2652122   -1589.9176    2.8907882 
   19700     1204.185   -1662.5083   -1595.4219    3935.1025     5182.714    2.8842606    5217.8501    1205.0171    16.464217   -1589.9623    2.8907547 
   19800    1124.4764   -1658.8296   -1596.1837   -2865.9849    5217.0629    2.8906185    5217.7833    1204.4909   -3.6712125   -1590.0233    2.8907424 
   19900     1200.169    -1662.713   -1595.8502    2139.7457     5194.856    2.8865112     5217.563    1204.0603    14.978637   -1590.0842    2.8907017 
Finished 1200 K - next row contains averaged properties
   20000    1117.9593   -1657.3076   -1595.0248    55.040288    5211.8397    2.8896535    5217.5282    1203.5427   -4.2090991   -1590.1382    2.8906954 
Loop time of 6.20236 on 2 procs for 10000 steps with 432 atoms

Performance: 278.604 ns/day, 0.086 hours/ns, 1612.290 timesteps/s
99.6% CPU use with 2 MPI tasks x 1 OpenMP threads

MPI task timing breakdown:
Section |  min time  |  avg time  |  max time  |%varavg| %total
---------------------------------------------------------------
Pair    | 5.3055     | 5.3736     | 5.4416     |   2.9 | 86.64
Neigh   | 0.079428   | 0.081309   | 0.08319    |   0.7 |  1.31
Comm    | 0.34549    | 0.41375    | 0.48201    |  10.6 |  6.67
Output  | 0.030662   | 0.030904   | 0.031147   |   0.1 |  0.50
Modify  | 0.26225    | 0.26313    | 0.26402    |   0.2 |  4.24
Other   |            | 0.03969    |            |       |  0.64

Nlocal:    216 ave 219 max 213 min
Histogram: 1 0 0 0 0 0 0 0 0 1
Nghost:    1835.5 ave 1858 max 1813 min
Histogram: 1 0 0 0 0 0 0 0 0 1
Neighs:    14836.5 ave 15022 max 14651 min
Histogram: 1 0 0 0 0 0 0 0 0 1

Total # of neighbors = 29673
Ave neighs/atom = 68.6875
Neighbor list builds = 183
Dangerous builds = 0
System init for write_data ...
Total wall time: 0:00:44
