------------------ Task 7 start ------------------
System created
---- Iteration: 1 ---- k=4 ----
Energy: -11.8724 eV ---- Time: 1.78 s
---- Iteration: 2 ---- k=8 ----
Energy: -11.8753 eV ---- Time: 2.22 s
---- Iteration: 3 ---- k=12 ----
Energy: -11.8753 eV ---- Time: 4.04 s
Written to DB
Optimal k-parameter: k=16
Calculator saved

  ___ ___ ___ _ _ _  
 |   |   |_  | | | | 
 | | | | | . | | | | 
 |__ |  _|___|_____|  19.8.1
 |___|_|             

User:   ericlin@hebbe07-8
Date:   Thu Mar  5 05:49:51 2020
Arch:   x86_64
Pid:    3141
Python: 3.7.2
gpaw:   /apps/Hebbe7/software/MPI/intel/2019.1.144-GCC-8.2.0-2.31.1/impi/2018.4.274/GPAW/19.8.1-Python-3.7.2/lib/python3.7/site-packages/gpaw
_gpaw:  /apps/Hebbe7/software/MPI/intel/2019.1.144-GCC-8.2.0-2.31.1/impi/2018.4.274/GPAW/19.8.1-Python-3.7.2/bin/
        gpaw-python
ase:    /apps/Hebbe7/software/MPI/intel/2019.1.144-GCC-8.2.0-2.31.1/impi/2018.4.274/ASE/3.18.0-Python-3.7.2/lib/python3.7/site-packages/ase (version 3.18.0)
numpy:  /apps/Hebbe7/software/MPI/intel/2019.1.144-GCC-8.2.0-2.31.1/impi/2018.4.274/SciPy-bundle/2019.03/lib/python3.7/site-packages/numpy (version 1.16.2)
scipy:  /apps/Hebbe7/software/MPI/intel/2019.1.144-GCC-8.2.0-2.31.1/impi/2018.4.274/SciPy-bundle/2019.03/lib/python3.7/site-packages/scipy (version 1.2.1)
libxc:  4.3.4
units:  Angstrom and eV
cores:  10

Reading from Si_calc.gpw
Read dipole, energy, free_energy
Reading input parameters:
  kpts: [12 12 12]
  mode: {ecut: 200.0,
         gammacentered: False,
         name: pw}

Initialize ...

Si-setup:
  name: Silicon
  id: b152d83ba7c91a8f3191da15c74e1ae7
  Z: 14
  valence: 4
  core: 10
  charge: 0.0
  file: /apps/Common/Core/GPAW-setups/0.9.20000/Si.LDA.gz
  compensation charges: gauss, rc=0.33, lmax=2
  cutoffs: 1.86(filt), 2.06(core),
  valence states:
                energy  radius
    3s(2.00)   -10.878   1.058
    3p(2.00)    -4.162   1.058
    *s          16.334   1.058
    *p          23.049   1.058
    *d           0.000   1.058

  Using partial waves for Si as LCAO basis

Reference energy: -15717.426366

Spin-paired calculation

Occupation numbers:
  Fermi-Dirac: width=0.1000 eV

Convergence criteria:
  Maximum total energy change: 0.0005 eV / electron
  Maximum integral of absolute density change: 0.0001 electrons
  Maximum integral of absolute eigenstate change: 4e-08 eV^2
  Maximum number of iterations: 333

Symmetries present (total): 24

  ( 1  0  0)  ( 1  0  0)  ( 1  0 -1)  ( 1  0 -1)  ( 1 -1  0)  ( 1 -1  0)
  ( 0  1  0)  ( 0  0  1)  ( 0  1 -1)  ( 0  0 -1)  ( 0 -1  1)  ( 0 -1  0)
  ( 0  0  1)  ( 0  1  0)  ( 0  0 -1)  ( 0  1 -1)  ( 0 -1  0)  ( 0 -1  1)

  ( 0  1  0)  ( 0  1  0)  ( 0  1 -1)  ( 0  1 -1)  ( 0  0  1)  ( 0  0  1)
  ( 1  0  0)  ( 0  0  1)  ( 1  0 -1)  ( 0  0 -1)  ( 1  0  0)  ( 0  1  0)
  ( 0  0  1)  ( 1  0  0)  ( 0  0 -1)  ( 1  0 -1)  ( 0  1  0)  ( 1  0  0)

  ( 0  0 -1)  ( 0  0 -1)  ( 0 -1  1)  ( 0 -1  1)  ( 0 -1  0)  ( 0 -1  0)
  ( 1  0 -1)  ( 0  1 -1)  ( 1 -1  0)  ( 0 -1  0)  ( 1 -1  0)  ( 0 -1  1)
  ( 0  1 -1)  ( 1  0 -1)  ( 0 -1  0)  ( 1 -1  0)  ( 0 -1  1)  ( 1 -1  0)

  (-1  1  0)  (-1  1  0)  (-1  0  1)  (-1  0  1)  (-1  0  0)  (-1  0  0)
  (-1  0  1)  (-1  0  0)  (-1  1  0)  (-1  0  0)  (-1  1  0)  (-1  0  1)
  (-1  0  0)  (-1  0  1)  (-1  0  0)  (-1  1  0)  (-1  0  1)  (-1  1  0)
Note: your k-points are not as symmetric as your crystal!

1728 k-points: 12 x 12 x 12 Monkhorst-Pack grid
182 k-points in the irreducible part of the Brillouin zone
       k-points in crystal coordinates                weights
   0:     0.04166667    0.04166667   -0.04166667          6/1728
   1:     0.04166667    0.04166667    0.04166667          2/1728
   2:     0.12500000   -0.04166667   -0.04166667          6/1728
   3:     0.12500000    0.04166667   -0.12500000         12/1728
   4:     0.12500000    0.04166667   -0.04166667         12/1728
   5:     0.12500000    0.04166667    0.04166667          6/1728
   6:     0.12500000    0.12500000   -0.12500000          6/1728
   7:     0.12500000    0.12500000   -0.04166667          6/1728
   8:     0.12500000    0.12500000    0.04166667          6/1728
   9:     0.12500000    0.12500000    0.12500000          2/1728
          ...
 181:     0.45833333    0.45833333    0.45833333          2/1728

Wave functions: Plane wave expansion
  Cutoff energy: 200.000 eV
  Number of coefficients (min, max): 250, 271
  Pulay-stress correction: 0.000000 eV/Ang^3 (de/decut=0.000000)
  Using FFTW library
  ScaLapack parameters: grid=1x1, blocksize=None
  Wavefunction extrapolation:
    Improved wavefunction reuse through dual PAW basis 

Eigensolver
   Davidson(niter=2, smin=None, normalize=True) 

Densities:
  Coarse grid: 14*14*14 grid
  Fine grid: 28*28*28 grid
  Total Charge: 0.000000 

Density mixing:
  Method: separate
  Backend: pulay
  Linear mixing parameter: 0.05
  Mixing with 5 old densities
  Damping of long wave oscillations: 50 

Hamiltonian:
  XC and Coulomb potentials evaluated on a 28*28*28 grid
  Using the LDA Exchange-Correlation functional
 

Memory estimate:
  Process memory now: 109.90 MiB
  Calculator: 2.79 MiB
    Density: 1.03 MiB
      Arrays: 0.54 MiB
      Localized functions: 0.27 MiB
      Mixer: 0.21 MiB
    Hamiltonian: 0.36 MiB
      Arrays: 0.36 MiB
      XC: 0.00 MiB
      Poisson: 0.00 MiB
      vbar: 0.01 MiB
    Wavefunctions: 1.40 MiB
      Arrays psit_nG: 0.60 MiB
      Eigensolver: 0.06 MiB
      Projections: 0.06 MiB
      Projectors: 0.51 MiB
      PW-descriptor: 0.18 MiB

Total number of cores used: 10
Parallelization over k-points: 10

Number of atoms: 2
Number of atomic orbitals: 8
Number of bands in calculation: 8
Bands to converge: occupied states only
Number of valence electrons: 8

... initialized

Input parameters:
  fixdensity: True
  kpts: {npoints: 60,
         path: GXWKL}
  symmetry: off

Initialize ...

Si-setup:
  name: Silicon
  id: b152d83ba7c91a8f3191da15c74e1ae7
  Z: 14
  valence: 4
  core: 10
  charge: 0.0
  file: /apps/Common/Core/GPAW-setups/0.9.20000/Si.LDA.gz
  compensation charges: gauss, rc=0.33, lmax=2
  cutoffs: 1.86(filt), 2.06(core),
  valence states:
                energy  radius
    3s(2.00)   -10.878   1.058
    3p(2.00)    -4.162   1.058
    *s          16.334   1.058
    *p          23.049   1.058
    *d           0.000   1.058

  Using partial waves for Si as LCAO basis

Reference energy: -15717.426366

Spin-paired calculation

Occupation numbers:
  Fixed Fermi level
  Fermi-Dirac: width=0.1000 eV

Convergence criteria:
  Maximum total energy change: 0.0005 eV / electron
  Maximum integral of absolute density change: 0.0001 electrons
  Maximum integral of absolute eigenstate change: 4e-08 eV^2
  Maximum number of iterations: 333

Symmetries present (total): 1

  ( 1  0  0)
  ( 0  1  0)
  ( 0  0  1)

60 k-points
60 k-points in the irreducible part of the Brillouin zone
       k-points in crystal coordinates                weights
   0:     0.00000000    0.00000000    0.00000000       0.01666667
   1:     0.02173913    0.00000000    0.02173913       0.01666667
   2:     0.04347826    0.00000000    0.04347826       0.01666667
   3:     0.06521739    0.00000000    0.06521739       0.01666667
   4:     0.08695652    0.00000000    0.08695652       0.01666667
   5:     0.10869565    0.00000000    0.10869565       0.01666667
   6:     0.13043478    0.00000000    0.13043478       0.01666667
   7:     0.15217391    0.00000000    0.15217391       0.01666667
   8:     0.17391304    0.00000000    0.17391304       0.01666667
   9:     0.19565217    0.00000000    0.19565217       0.01666667
          ...
  59:     0.50000000    0.50000000    0.50000000       0.01666667

Wave functions: Plane wave expansion
  Cutoff energy: 200.000 eV
  Number of coefficients (min, max): 246, 267
  Pulay-stress correction: 0.000000 eV/Ang^3 (de/decut=0.000000)
  Using FFTW library
  ScaLapack parameters: grid=1x1, blocksize=None
  Wavefunction extrapolation:
    Improved wavefunction reuse through dual PAW basis 

Eigensolver
   Davidson(niter=2, smin=None, normalize=True) 

No density mixing

Memory estimate:
  Process memory now: 109.91 MiB
  Calculator: 1.96 MiB
    Density: 1.03 MiB
      Arrays: 0.54 MiB
      Localized functions: 0.27 MiB
      Mixer: 0.21 MiB
    Hamiltonian: 0.36 MiB
      Arrays: 0.36 MiB
      XC: 0.00 MiB
      Poisson: 0.00 MiB
      vbar: 0.01 MiB
    Wavefunctions: 0.57 MiB
      Arrays psit_nG: 0.20 MiB
      Eigensolver: 0.06 MiB
      Projections: 0.02 MiB
      Projectors: 0.17 MiB
      PW-descriptor: 0.13 MiB

Total number of cores used: 10
Parallelization over k-points: 10

Number of atoms: 2
Number of atomic orbitals: 8
Number of bands in calculation: 8
Bands to converge: occupied states only
Number of valence electrons: 8

... initialized

Initializing position-dependent things.

Creating initial wave functions:
  8 bands from LCAO basis set

                    
                    
                    
                    
           Si       
                    
       Si           
                    
                    
                    
                    

Positions:
   0 Si     0.000000    0.000000    0.000000    ( 0.0000,  0.0000,  0.0000)
   1 Si     1.357500    1.357500    1.357500    ( 0.0000,  0.0000,  0.0000)

Unit cell:
           periodic     x           y           z      points  spacing
  1. axis:    yes    0.000000    2.715000    2.715000    14     0.2239
  2. axis:    yes    2.715000    0.000000    2.715000    14     0.2239
  3. axis:    yes    2.715000    2.715000    0.000000    14     0.2239

  Lengths:   3.839590   3.839590   3.839590
  Angles:   60.000000  60.000000  60.000000

Effective grid spacing dv^(1/3) = 0.2443

                     log10-error:    total        iterations:
           time      wfs    density  energy       fermi  poisson
iter:   1  05:49:53  +0.97          -11.294583    2             
iter:   2  05:49:53  -2.00          -11.306667    2             
iter:   3  05:49:53  -3.51          -11.306954    2             
iter:   4  05:49:53  -4.70          -11.306967    2             
iter:   5  05:49:53  -5.69          -11.306969    2             
iter:   6  05:49:53  -6.60          -11.306969    2             
iter:   7  05:49:53  -7.46          -11.306969    2             

Converged after 7 iterations.

Dipole moment: (-2.925915, -2.925915, -2.925915) |e|*Ang

Energy contributions relative to reference atoms: (reference = -15717.426366)

Kinetic:        +16.235369
Potential:      -13.779902
External:        +0.000000
XC:             -13.709135
Entropy (-ST):   -0.013878
Local:           -0.046361
--------------------------
Free energy:    -11.313908
Extrapolated:   -11.306969

Fixed Fermi level: 5.37250

Showing only first 2 kpts
 Kpt  Band  Eigenvalues  Occupancy
  0     2      5.13866    0.03032
  0     3      5.13866    0.03032
  0     4      7.66949    0.00000
  0     5      7.66949    0.00000

  1     2      5.10267    0.03117
  1     3      5.10267    0.03117
  1     4      7.64777    0.00000
  1     5      7.71557    0.00000


Gap: 0.475 eV
Transition (v -> c):
  (s=0, k=0, n=3, [0.00, 0.00, 0.00]) -> (s=0, k=19, n=4, [0.41, 0.00, 0.41])
Electronic band structure calculated
Electronic structure calculation completed
Phononic structure calculation started

  ___ ___ ___ _ _ _  
 |   |   |_  | | | | 
 | | | | | . | | | | 
 |__ |  _|___|_____|  19.8.1
 |___|_|             

User:   ericlin@hebbe07-8
Date:   Thu Mar  5 05:49:53 2020
Arch:   x86_64
Pid:    3141
Python: 3.7.2
gpaw:   /apps/Hebbe7/software/MPI/intel/2019.1.144-GCC-8.2.0-2.31.1/impi/2018.4.274/GPAW/19.8.1-Python-3.7.2/lib/python3.7/site-packages/gpaw
_gpaw:  /apps/Hebbe7/software/MPI/intel/2019.1.144-GCC-8.2.0-2.31.1/impi/2018.4.274/GPAW/19.8.1-Python-3.7.2/bin/
        gpaw-python
ase:    /apps/Hebbe7/software/MPI/intel/2019.1.144-GCC-8.2.0-2.31.1/impi/2018.4.274/ASE/3.18.0-Python-3.7.2/lib/python3.7/site-packages/ase (version 3.18.0)
numpy:  /apps/Hebbe7/software/MPI/intel/2019.1.144-GCC-8.2.0-2.31.1/impi/2018.4.274/SciPy-bundle/2019.03/lib/python3.7/site-packages/numpy (version 1.16.2)
scipy:  /apps/Hebbe7/software/MPI/intel/2019.1.144-GCC-8.2.0-2.31.1/impi/2018.4.274/SciPy-bundle/2019.03/lib/python3.7/site-packages/scipy (version 1.2.1)
libxc:  4.3.4
units:  Angstrom and eV
cores:  10

Reading from Si_calc.gpw
Read dipole, energy, free_energy
Reading input parameters:
  kpts: [12 12 12]
  mode: {ecut: 200.0,
         gammacentered: False,
         name: pw}

Initialize ...

Si-setup:
  name: Silicon
  id: b152d83ba7c91a8f3191da15c74e1ae7
  Z: 14
  valence: 4
  core: 10
  charge: 0.0
  file: /apps/Common/Core/GPAW-setups/0.9.20000/Si.LDA.gz
  compensation charges: gauss, rc=0.33, lmax=2
  cutoffs: 1.86(filt), 2.06(core),
  valence states:
                energy  radius
    3s(2.00)   -10.878   1.058
    3p(2.00)    -4.162   1.058
    *s          16.334   1.058
    *p          23.049   1.058
    *d           0.000   1.058

  Using partial waves for Si as LCAO basis

Reference energy: -15717.426366

Spin-paired calculation

Occupation numbers:
  Fermi-Dirac: width=0.1000 eV

Convergence criteria:
  Maximum total energy change: 0.0005 eV / electron
  Maximum integral of absolute density change: 0.0001 electrons
  Maximum integral of absolute eigenstate change: 4e-08 eV^2
  Maximum number of iterations: 333

Symmetries present (total): 24

  ( 1  0  0)  ( 1  0  0)  ( 1  0 -1)  ( 1  0 -1)  ( 1 -1  0)  ( 1 -1  0)
  ( 0  1  0)  ( 0  0  1)  ( 0  1 -1)  ( 0  0 -1)  ( 0 -1  1)  ( 0 -1  0)
  ( 0  0  1)  ( 0  1  0)  ( 0  0 -1)  ( 0  1 -1)  ( 0 -1  0)  ( 0 -1  1)

  ( 0  1  0)  ( 0  1  0)  ( 0  1 -1)  ( 0  1 -1)  ( 0  0  1)  ( 0  0  1)
  ( 1  0  0)  ( 0  0  1)  ( 1  0 -1)  ( 0  0 -1)  ( 1  0  0)  ( 0  1  0)
  ( 0  0  1)  ( 1  0  0)  ( 0  0 -1)  ( 1  0 -1)  ( 0  1  0)  ( 1  0  0)

  ( 0  0 -1)  ( 0  0 -1)  ( 0 -1  1)  ( 0 -1  1)  ( 0 -1  0)  ( 0 -1  0)
  ( 1  0 -1)  ( 0  1 -1)  ( 1 -1  0)  ( 0 -1  0)  ( 1 -1  0)  ( 0 -1  1)
  ( 0  1 -1)  ( 1  0 -1)  ( 0 -1  0)  ( 1 -1  0)  ( 0 -1  1)  ( 1 -1  0)

  (-1  1  0)  (-1  1  0)  (-1  0  1)  (-1  0  1)  (-1  0  0)  (-1  0  0)
  (-1  0  1)  (-1  0  0)  (-1  1  0)  (-1  0  0)  (-1  1  0)  (-1  0  1)
  (-1  0  0)  (-1  0  1)  (-1  0  0)  (-1  1  0)  (-1  0  1)  (-1  1  0)
Note: your k-points are not as symmetric as your crystal!

1728 k-points: 12 x 12 x 12 Monkhorst-Pack grid
182 k-points in the irreducible part of the Brillouin zone
       k-points in crystal coordinates                weights
   0:     0.04166667    0.04166667   -0.04166667          6/1728
   1:     0.04166667    0.04166667    0.04166667          2/1728
   2:     0.12500000   -0.04166667   -0.04166667          6/1728
   3:     0.12500000    0.04166667   -0.12500000         12/1728
   4:     0.12500000    0.04166667   -0.04166667         12/1728
   5:     0.12500000    0.04166667    0.04166667          6/1728
   6:     0.12500000    0.12500000   -0.12500000          6/1728
   7:     0.12500000    0.12500000   -0.04166667          6/1728
   8:     0.12500000    0.12500000    0.04166667          6/1728
   9:     0.12500000    0.12500000    0.12500000          2/1728
          ...
 181:     0.45833333    0.45833333    0.45833333          2/1728

Wave functions: Plane wave expansion
  Cutoff energy: 200.000 eV
  Number of coefficients (min, max): 250, 271
  Pulay-stress correction: 0.000000 eV/Ang^3 (de/decut=0.000000)
  Using FFTW library
  ScaLapack parameters: grid=1x1, blocksize=None
  Wavefunction extrapolation:
    Improved wavefunction reuse through dual PAW basis 

Eigensolver
   Davidson(niter=2, smin=None, normalize=True) 

Densities:
  Coarse grid: 14*14*14 grid
  Fine grid: 28*28*28 grid
  Total Charge: 0.000000 

Density mixing:
  Method: separate
  Backend: pulay
  Linear mixing parameter: 0.05
  Mixing with 5 old densities
  Damping of long wave oscillations: 50 

Hamiltonian:
  XC and Coulomb potentials evaluated on a 28*28*28 grid
  Using the LDA Exchange-Correlation functional
 

Memory estimate:
  Process memory now: 111.92 MiB
  Calculator: 2.79 MiB
    Density: 1.03 MiB
      Arrays: 0.54 MiB
      Localized functions: 0.27 MiB
      Mixer: 0.21 MiB
    Hamiltonian: 0.36 MiB
      Arrays: 0.36 MiB
      XC: 0.00 MiB
      Poisson: 0.00 MiB
      vbar: 0.01 MiB
    Wavefunctions: 1.40 MiB
      Arrays psit_nG: 0.60 MiB
      Eigensolver: 0.06 MiB
      Projections: 0.06 MiB
      Projectors: 0.51 MiB
      PW-descriptor: 0.18 MiB

Total number of cores used: 10
Parallelization over k-points: 10

Number of atoms: 2
Number of atomic orbitals: 8
Number of bands in calculation: 8
Bands to converge: occupied states only
Number of valence electrons: 8

... initialized

Timing:                              incl.     excl.
-----------------------------------------------------------
Hamiltonian:                         0.022     0.000   0.0% |
 Atomic:                             0.016     0.016   0.6% |
  XC Correction:                     0.000     0.000   0.0% |
 Calculate atomic Hamiltonians:      0.001     0.001   0.0% |
 Communicate:                        0.000     0.000   0.0% |
 Poisson:                            0.000     0.000   0.0% |
 XC 3D grid:                         0.004     0.004   0.2% |
LCAO initialization:                 0.291     0.021   0.8% |
 LCAO eigensolver:                   0.049     0.000   0.0% |
  Calculate projections:             0.000     0.000   0.0% |
  DenseAtomicCorrection:             0.001     0.001   0.0% |
  Distribute overlap matrix:         0.000     0.000   0.0% |
  Orbital Layouts:                   0.001     0.001   0.0% |
  Potential matrix:                  0.033     0.033   1.2% |
  Sum over cells:                    0.013     0.013   0.5% |
 LCAO to grid:                       0.114     0.114   4.2% |-|
 Set positions (LCAO WFS):           0.107     0.018   0.7% |
  Basic WFS set positions:           0.000     0.000   0.0% |
  Basis functions set positions:     0.000     0.000   0.0% |
  P tci:                             0.026     0.026   0.9% |
  ST tci:                            0.040     0.040   1.5% ||
  mktci:                             0.022     0.022   0.8% |
PWDescriptor:                        0.005     0.005   0.2% |
Redistribute:                        0.000     0.000   0.0% |
SCF-cycle:                           0.352     0.032   1.2% |
 Davidson:                           0.316     0.090   3.3% ||
  Apply H:                           0.026     0.022   0.8% |
   HMM T:                            0.004     0.004   0.1% |
  Subspace diag:                     0.054     0.004   0.2% |
   calc_h_matrix:                    0.037     0.010   0.4% |
    Apply H:                         0.027     0.023   0.8% |
     HMM T:                          0.004     0.004   0.1% |
   diagonalize:                      0.009     0.009   0.3% |
   rotate_psi:                       0.004     0.004   0.2% |
  calc. matrices:                    0.115     0.063   2.3% ||
   Apply H:                          0.053     0.045   1.7% ||
    HMM T:                           0.008     0.008   0.3% |
  diagonalize:                       0.024     0.024   0.9% |
  rotate_psi:                        0.006     0.006   0.2% |
 Orthonormalize:                     0.004     0.001   0.0% |
  calc_s_matrix:                     0.001     0.001   0.0% |
  inverse-cholesky:                  0.001     0.001   0.0% |
  projections:                       0.001     0.001   0.0% |
  rotate_psi_s:                      0.000     0.000   0.0% |
Set symmetry:                        0.153     0.153   5.6% |-|
Other:                               1.906     1.906  69.8% |---------------------------|
-----------------------------------------------------------
Total:                                         2.729 100.0%

Memory usage: 111.92 MiB
Date: Thu Mar  5 05:49:54 2020
Input parameters:
  symmetry: off

******** Phonon calculation started *********
******** Phonon calculation completed *********
System created
---- Iteration: 1 ---- k=4 ----
Energy: -11.8724 eV ---- Time: 1.77 s
---- Iteration: 2 ---- k=8 ----
Energy: -11.8753 eV ---- Time: 2.22 s
---- Iteration: 3 ---- k=12 ----
Energy: -11.8753 eV ---- Time: 4.04 s
Written to DB
Optimal k-parameter: k=16
Calculator saved
Phononic structure calculation started
System created
---- Iteration: 1 ---- k=4 ----
Energy: -11.8724 eV ---- Time: 1.77 s
---- Iteration: 2 ---- k=8 ----
Energy: -11.8753 eV ---- Time: 2.22 s
---- Iteration: 3 ---- k=12 ----
Energy: -11.8753 eV ---- Time: 4.04 s
Written to DB
Optimal k-parameter: k=16
Calculator saved
Phononic structure calculation started
System created
---- Iteration: 1 ---- k=4 ----
Energy: -11.8724 eV ---- Time: 1.77 s
---- Iteration: 2 ---- k=8 ----
Energy: -11.8753 eV ---- Time: 2.22 s
---- Iteration: 3 ---- k=12 ----
Energy: -11.8753 eV ---- Time: 4.04 s
Written to DB
Optimal k-parameter: k=16
Calculator saved
Phononic structure calculation started
System created
---- Iteration: 1 ---- k=4 ----
Energy: -11.8724 eV ---- Time: 1.77 s
---- Iteration: 2 ---- k=8 ----
Energy: -11.8753 eV ---- Time: 2.22 s
---- Iteration: 3 ---- k=12 ----
Energy: -11.8753 eV ---- Time: 4.04 s
Written to DB
Optimal k-parameter: k=16
Calculator saved
Phononic structure calculation started
System created
---- Iteration: 1 ---- k=4 ----
Energy: -11.8724 eV ---- Time: 1.77 s
---- Iteration: 2 ---- k=8 ----
Energy: -11.8753 eV ---- Time: 2.22 s
---- Iteration: 3 ---- k=12 ----
Energy: -11.8753 eV ---- Time: 4.04 s
Written to DB
Optimal k-parameter: k=16
Calculator saved
Phononic structure calculation started
System created
---- Iteration: 1 ---- k=4 ----
Energy: -11.8724 eV ---- Time: 1.77 s
---- Iteration: 2 ---- k=8 ----
Energy: -11.8753 eV ---- Time: 2.22 s
---- Iteration: 3 ---- k=12 ----
Energy: -11.8753 eV ---- Time: 4.04 s
Written to DB
Optimal k-parameter: k=16
Calculator saved
Phononic structure calculation started
System created
---- Iteration: 1 ---- k=4 ----
Energy: -11.8724 eV ---- Time: 1.77 s
---- Iteration: 2 ---- k=8 ----
Energy: -11.8753 eV ---- Time: 2.22 s
---- Iteration: 3 ---- k=12 ----
Energy: -11.8753 eV ---- Time: 4.04 s
Written to DB
Optimal k-parameter: k=16
Calculator saved
Phononic structure calculation started
System created
---- Iteration: 1 ---- k=4 ----
Energy: -11.8724 eV ---- Time: 1.77 s
---- Iteration: 2 ---- k=8 ----
Energy: -11.8753 eV ---- Time: 2.22 s
---- Iteration: 3 ---- k=12 ----
Energy: -11.8753 eV ---- Time: 4.04 s
Written to DB
Optimal k-parameter: k=16
Calculator saved
Phononic structure calculation started
System created
---- Iteration: 1 ---- k=4 ----
Energy: -11.8724 eV ---- Time: 1.77 s
---- Iteration: 2 ---- k=8 ----
Energy: -11.8753 eV ---- Time: 2.22 s
---- Iteration: 3 ---- k=12 ----
Energy: -11.8753 eV ---- Time: 4.04 s
Written to DB
Optimal k-parameter: k=16
Calculator saved
Phononic structure calculation started
------------------ Task 7 done -------------------
