------------------ Task 7 start ------------------
System created
---- Iteration: 1 ---- k=4 ----
Energy: -11.8724 eV ---- Time: 1.55 s
---- Iteration: 2 ---- k=8 ----
Energy: -11.8753 eV ---- Time: 1.83 s
---- Iteration: 3 ---- k=12 ----
Energy: -11.8753 eV ---- Time: 3.38 s
Written to DB
Optimal k-parameter: k=16
Calculator saved

  ___ ___ ___ _ _ _  
 |   |   |_  | | | | 
 | | | | | . | | | | 
 |__ |  _|___|_____|  19.8.1
 |___|_|             

User:   ericlin@hebbe03-2
Date:   Thu Mar  5 03:22:08 2020
Arch:   x86_64
Pid:    26342
Python: 3.7.2
gpaw:   /apps/Hebbe7/software/MPI/intel/2019.1.144-GCC-8.2.0-2.31.1/impi/2018.4.274/GPAW/19.8.1-Python-3.7.2/lib/python3.7/site-packages/gpaw
_gpaw:  /apps/Hebbe7/software/MPI/intel/2019.1.144-GCC-8.2.0-2.31.1/impi/2018.4.274/GPAW/19.8.1-Python-3.7.2/bin/
        gpaw-python
ase:    /apps/Hebbe7/software/MPI/intel/2019.1.144-GCC-8.2.0-2.31.1/impi/2018.4.274/ASE/3.18.0-Python-3.7.2/lib/python3.7/site-packages/ase (version 3.18.0)
numpy:  /apps/Hebbe7/software/MPI/intel/2019.1.144-GCC-8.2.0-2.31.1/impi/2018.4.274/SciPy-bundle/2019.03/lib/python3.7/site-packages/numpy (version 1.16.2)
scipy:  /apps/Hebbe7/software/MPI/intel/2019.1.144-GCC-8.2.0-2.31.1/impi/2018.4.274/SciPy-bundle/2019.03/lib/python3.7/site-packages/scipy (version 1.2.1)
libxc:  4.3.4
units:  Angstrom and eV
cores:  10

Reading from Si_calc.gpw
Read dipole, energy, free_energy
Reading input parameters:
  kpts: [12 12 12]
  mode: {ecut: 200.0,
         gammacentered: False,
         name: pw}

Initialize ...

Si-setup:
  name: Silicon
  id: b152d83ba7c91a8f3191da15c74e1ae7
  Z: 14
  valence: 4
  core: 10
  charge: 0.0
  file: /apps/Common/Core/GPAW-setups/0.9.20000/Si.LDA.gz
  compensation charges: gauss, rc=0.33, lmax=2
  cutoffs: 1.86(filt), 2.06(core),
  valence states:
                energy  radius
    3s(2.00)   -10.878   1.058
    3p(2.00)    -4.162   1.058
    *s          16.334   1.058
    *p          23.049   1.058
    *d           0.000   1.058

  Using partial waves for Si as LCAO basis

Reference energy: -15717.426366

Spin-paired calculation

Occupation numbers:
  Fermi-Dirac: width=0.1000 eV

Convergence criteria:
  Maximum total energy change: 0.0005 eV / electron
  Maximum integral of absolute density change: 0.0001 electrons
  Maximum integral of absolute eigenstate change: 4e-08 eV^2
  Maximum number of iterations: 333

Symmetries present (total): 24

  ( 1  0  0)  ( 1  0  0)  ( 1  0 -1)  ( 1  0 -1)  ( 1 -1  0)  ( 1 -1  0)
  ( 0  1  0)  ( 0  0  1)  ( 0  1 -1)  ( 0  0 -1)  ( 0 -1  1)  ( 0 -1  0)
  ( 0  0  1)  ( 0  1  0)  ( 0  0 -1)  ( 0  1 -1)  ( 0 -1  0)  ( 0 -1  1)

  ( 0  1  0)  ( 0  1  0)  ( 0  1 -1)  ( 0  1 -1)  ( 0  0  1)  ( 0  0  1)
  ( 1  0  0)  ( 0  0  1)  ( 1  0 -1)  ( 0  0 -1)  ( 1  0  0)  ( 0  1  0)
  ( 0  0  1)  ( 1  0  0)  ( 0  0 -1)  ( 1  0 -1)  ( 0  1  0)  ( 1  0  0)

  ( 0  0 -1)  ( 0  0 -1)  ( 0 -1  1)  ( 0 -1  1)  ( 0 -1  0)  ( 0 -1  0)
  ( 1  0 -1)  ( 0  1 -1)  ( 1 -1  0)  ( 0 -1  0)  ( 1 -1  0)  ( 0 -1  1)
  ( 0  1 -1)  ( 1  0 -1)  ( 0 -1  0)  ( 1 -1  0)  ( 0 -1  1)  ( 1 -1  0)

  (-1  1  0)  (-1  1  0)  (-1  0  1)  (-1  0  1)  (-1  0  0)  (-1  0  0)
  (-1  0  1)  (-1  0  0)  (-1  1  0)  (-1  0  0)  (-1  1  0)  (-1  0  1)
  (-1  0  0)  (-1  0  1)  (-1  0  0)  (-1  1  0)  (-1  0  1)  (-1  1  0)
Note: your k-points are not as symmetric as your crystal!

1728 k-points: 12 x 12 x 12 Monkhorst-Pack grid
182 k-points in the irreducible part of the Brillouin zone
       k-points in crystal coordinates                weights
   0:     0.04166667    0.04166667   -0.04166667          6/1728
   1:     0.04166667    0.04166667    0.04166667          2/1728
   2:     0.12500000   -0.04166667   -0.04166667          6/1728
   3:     0.12500000    0.04166667   -0.12500000         12/1728
   4:     0.12500000    0.04166667   -0.04166667         12/1728
   5:     0.12500000    0.04166667    0.04166667          6/1728
   6:     0.12500000    0.12500000   -0.12500000          6/1728
   7:     0.12500000    0.12500000   -0.04166667          6/1728
   8:     0.12500000    0.12500000    0.04166667          6/1728
   9:     0.12500000    0.12500000    0.12500000          2/1728
          ...
 181:     0.45833333    0.45833333    0.45833333          2/1728

Wave functions: Plane wave expansion
  Cutoff energy: 200.000 eV
  Number of coefficients (min, max): 250, 271
  Pulay-stress correction: 0.000000 eV/Ang^3 (de/decut=0.000000)
  Using FFTW library
  ScaLapack parameters: grid=1x1, blocksize=None
  Wavefunction extrapolation:
    Improved wavefunction reuse through dual PAW basis 

Eigensolver
   Davidson(niter=2, smin=None, normalize=True) 

Densities:
  Coarse grid: 14*14*14 grid
  Fine grid: 28*28*28 grid
  Total Charge: 0.000000 

Density mixing:
  Method: separate
  Backend: pulay
  Linear mixing parameter: 0.05
  Mixing with 5 old densities
  Damping of long wave oscillations: 50 

Hamiltonian:
  XC and Coulomb potentials evaluated on a 28*28*28 grid
  Using the LDA Exchange-Correlation functional
 

Memory estimate:
  Process memory now: 110.29 MiB
  Calculator: 2.79 MiB
    Density: 1.03 MiB
      Arrays: 0.54 MiB
      Localized functions: 0.27 MiB
      Mixer: 0.21 MiB
    Hamiltonian: 0.36 MiB
      Arrays: 0.36 MiB
      XC: 0.00 MiB
      Poisson: 0.00 MiB
      vbar: 0.01 MiB
    Wavefunctions: 1.40 MiB
      Arrays psit_nG: 0.60 MiB
      Eigensolver: 0.06 MiB
      Projections: 0.06 MiB
      Projectors: 0.51 MiB
      PW-descriptor: 0.18 MiB

Total number of cores used: 10
Parallelization over k-points: 10

Number of atoms: 2
Number of atomic orbitals: 8
Number of bands in calculation: 8
Bands to converge: occupied states only
Number of valence electrons: 8

... initialized

Input parameters:
  fixdensity: True
  kpts: {size: (20, 20, 20)}
  symmetry: off

Initialize ...

Si-setup:
  name: Silicon
  id: b152d83ba7c91a8f3191da15c74e1ae7
  Z: 14
  valence: 4
  core: 10
  charge: 0.0
  file: /apps/Common/Core/GPAW-setups/0.9.20000/Si.LDA.gz
  compensation charges: gauss, rc=0.33, lmax=2
  cutoffs: 1.86(filt), 2.06(core),
  valence states:
                energy  radius
    3s(2.00)   -10.878   1.058
    3p(2.00)    -4.162   1.058
    *s          16.334   1.058
    *p          23.049   1.058
    *d           0.000   1.058

  Using partial waves for Si as LCAO basis

Reference energy: -15717.426366

Spin-paired calculation

Occupation numbers:
  Fixed Fermi level
  Fermi-Dirac: width=0.1000 eV

Convergence criteria:
  Maximum total energy change: 0.0005 eV / electron
  Maximum integral of absolute density change: 0.0001 electrons
  Maximum integral of absolute eigenstate change: 4e-08 eV^2
  Maximum number of iterations: 333

Symmetries present (total): 1

  ( 1  0  0)
  ( 0  1  0)
  ( 0  0  1)

8000 k-points: 20 x 20 x 20 Monkhorst-Pack grid
8000 k-points in the irreducible part of the Brillouin zone
       k-points in crystal coordinates                weights
   0:    -0.47500000   -0.47500000   -0.47500000          1/8000
   1:    -0.47500000   -0.47500000   -0.42500000          1/8000
   2:    -0.47500000   -0.47500000   -0.37500000          1/8000
   3:    -0.47500000   -0.47500000   -0.32500000          1/8000
   4:    -0.47500000   -0.47500000   -0.27500000          1/8000
   5:    -0.47500000   -0.47500000   -0.22500000          1/8000
   6:    -0.47500000   -0.47500000   -0.17500000          1/8000
   7:    -0.47500000   -0.47500000   -0.12500000          1/8000
   8:    -0.47500000   -0.47500000   -0.07500000          1/8000
   9:    -0.47500000   -0.47500000   -0.02500000          1/8000
          ...
7999:     0.47500000    0.47500000    0.47500000          1/8000

Wave functions: Plane wave expansion
  Cutoff energy: 200.000 eV
  Number of coefficients (min, max): 249, 271
  Pulay-stress correction: 0.000000 eV/Ang^3 (de/decut=0.000000)
  Using FFTW library
  ScaLapack parameters: grid=1x1, blocksize=None
  Wavefunction extrapolation:
    Improved wavefunction reuse through dual PAW basis 

Eigensolver
   Davidson(niter=2, smin=None, normalize=True) 

No density mixing

Memory estimate:
  Process memory now: 110.50 MiB
  Calculator: 55.66 MiB
    Density: 1.03 MiB
      Arrays: 0.54 MiB
      Localized functions: 0.27 MiB
      Mixer: 0.21 MiB
    Hamiltonian: 0.36 MiB
      Arrays: 0.36 MiB
      XC: 0.00 MiB
      Poisson: 0.00 MiB
      vbar: 0.01 MiB
    Wavefunctions: 54.27 MiB
      Arrays psit_nG: 26.46 MiB
      Eigensolver: 0.06 MiB
      Projections: 2.54 MiB
      Projectors: 21.79 MiB
      PW-descriptor: 3.41 MiB

Total number of cores used: 10
Parallelization over k-points: 10

Number of atoms: 2
Number of atomic orbitals: 8
Number of bands in calculation: 8
Bands to converge: occupied states only
Number of valence electrons: 8

... initialized

Initializing position-dependent things.

Creating initial wave functions:
  8 bands from LCAO basis set

                    
                    
                    
                    
           Si       
                    
       Si           
                    
                    
                    
                    

Positions:
   0 Si     0.000000    0.000000    0.000000    ( 0.0000,  0.0000,  0.0000)
   1 Si     1.357500    1.357500    1.357500    ( 0.0000,  0.0000,  0.0000)

Unit cell:
           periodic     x           y           z      points  spacing
  1. axis:    yes    0.000000    2.715000    2.715000    14     0.2239
  2. axis:    yes    2.715000    0.000000    2.715000    14     0.2239
  3. axis:    yes    2.715000    2.715000    0.000000    14     0.2239

  Lengths:   3.839590   3.839590   3.839590
  Angles:   60.000000  60.000000  60.000000

Effective grid spacing dv^(1/3) = 0.2443

                     log10-error:    total        iterations:
           time      wfs    density  energy       fermi  poisson
iter:   1  03:22:32  +1.01          -11.864101    2             
iter:   2  03:22:37  -2.05          -11.874989    1             
iter:   3  03:22:43  -3.55          -11.875249    1             
iter:   4  03:22:48  -4.74          -11.875263    1             
iter:   5  03:22:54  -5.78          -11.875264    1             
iter:   6  03:22:59  -6.77          -11.875264    1             
iter:   7  03:23:05  -7.73          -11.875264    1             

Converged after 7 iterations.

Dipole moment: (-2.925915, -2.925915, -2.925915) |e|*Ang

Energy contributions relative to reference atoms: (reference = -15717.426366)

Kinetic:        +15.660651
Potential:      -13.779902
External:        +0.000000
XC:             -13.709135
Entropy (-ST):   -0.001033
Local:           -0.046361
--------------------------
Free energy:    -11.875780
Extrapolated:   -11.875264

Fixed Fermi level: 5.37250

Showing only first 2 kpts
 Kpt  Band  Eigenvalues  Occupancy
  0     2      3.94696    0.00025
  0     3      3.94696    0.00025
  0     4      6.57255    0.00000
  0     5      8.44222    0.00000

  1     2      3.72899    0.00025
  1     3      3.86144    0.00025
  1     4      6.82037    0.00000
  1     5      8.36849    0.00000


Gap: 0.522 eV
Transition (v -> c):
  (s=0, k=3789, n=3, [-0.03, -0.03, -0.03]) -> (s=0, k=581, n=4, [-0.42, -0.03, -0.42])
Electronic band structure calculated
Electronic structure calculation completed
Phononic structure calculation started

  ___ ___ ___ _ _ _  
 |   |   |_  | | | | 
 | | | | | . | | | | 
 |__ |  _|___|_____|  19.8.1
 |___|_|             

User:   ericlin@hebbe03-2
Date:   Thu Mar  5 03:23:08 2020
Arch:   x86_64
Pid:    26342
Python: 3.7.2
gpaw:   /apps/Hebbe7/software/MPI/intel/2019.1.144-GCC-8.2.0-2.31.1/impi/2018.4.274/GPAW/19.8.1-Python-3.7.2/lib/python3.7/site-packages/gpaw
_gpaw:  /apps/Hebbe7/software/MPI/intel/2019.1.144-GCC-8.2.0-2.31.1/impi/2018.4.274/GPAW/19.8.1-Python-3.7.2/bin/
        gpaw-python
ase:    /apps/Hebbe7/software/MPI/intel/2019.1.144-GCC-8.2.0-2.31.1/impi/2018.4.274/ASE/3.18.0-Python-3.7.2/lib/python3.7/site-packages/ase (version 3.18.0)
numpy:  /apps/Hebbe7/software/MPI/intel/2019.1.144-GCC-8.2.0-2.31.1/impi/2018.4.274/SciPy-bundle/2019.03/lib/python3.7/site-packages/numpy (version 1.16.2)
scipy:  /apps/Hebbe7/software/MPI/intel/2019.1.144-GCC-8.2.0-2.31.1/impi/2018.4.274/SciPy-bundle/2019.03/lib/python3.7/site-packages/scipy (version 1.2.1)
libxc:  4.3.4
units:  Angstrom and eV
cores:  10

Reading from Si_calc.gpw
Read dipole, energy, free_energy
Reading input parameters:
  kpts: [12 12 12]
  mode: {ecut: 200.0,
         gammacentered: False,
         name: pw}

Initialize ...

Si-setup:
  name: Silicon
  id: b152d83ba7c91a8f3191da15c74e1ae7
  Z: 14
  valence: 4
  core: 10
  charge: 0.0
  file: /apps/Common/Core/GPAW-setups/0.9.20000/Si.LDA.gz
  compensation charges: gauss, rc=0.33, lmax=2
  cutoffs: 1.86(filt), 2.06(core),
  valence states:
                energy  radius
    3s(2.00)   -10.878   1.058
    3p(2.00)    -4.162   1.058
    *s          16.334   1.058
    *p          23.049   1.058
    *d           0.000   1.058

  Using partial waves for Si as LCAO basis

Reference energy: -15717.426366

Spin-paired calculation

Occupation numbers:
  Fermi-Dirac: width=0.1000 eV

Convergence criteria:
  Maximum total energy change: 0.0005 eV / electron
  Maximum integral of absolute density change: 0.0001 electrons
  Maximum integral of absolute eigenstate change: 4e-08 eV^2
  Maximum number of iterations: 333

Symmetries present (total): 24

  ( 1  0  0)  ( 1  0  0)  ( 1  0 -1)  ( 1  0 -1)  ( 1 -1  0)  ( 1 -1  0)
  ( 0  1  0)  ( 0  0  1)  ( 0  1 -1)  ( 0  0 -1)  ( 0 -1  1)  ( 0 -1  0)
  ( 0  0  1)  ( 0  1  0)  ( 0  0 -1)  ( 0  1 -1)  ( 0 -1  0)  ( 0 -1  1)

  ( 0  1  0)  ( 0  1  0)  ( 0  1 -1)  ( 0  1 -1)  ( 0  0  1)  ( 0  0  1)
  ( 1  0  0)  ( 0  0  1)  ( 1  0 -1)  ( 0  0 -1)  ( 1  0  0)  ( 0  1  0)
  ( 0  0  1)  ( 1  0  0)  ( 0  0 -1)  ( 1  0 -1)  ( 0  1  0)  ( 1  0  0)

  ( 0  0 -1)  ( 0  0 -1)  ( 0 -1  1)  ( 0 -1  1)  ( 0 -1  0)  ( 0 -1  0)
  ( 1  0 -1)  ( 0  1 -1)  ( 1 -1  0)  ( 0 -1  0)  ( 1 -1  0)  ( 0 -1  1)
  ( 0  1 -1)  ( 1  0 -1)  ( 0 -1  0)  ( 1 -1  0)  ( 0 -1  1)  ( 1 -1  0)

  (-1  1  0)  (-1  1  0)  (-1  0  1)  (-1  0  1)  (-1  0  0)  (-1  0  0)
  (-1  0  1)  (-1  0  0)  (-1  1  0)  (-1  0  0)  (-1  1  0)  (-1  0  1)
  (-1  0  0)  (-1  0  1)  (-1  0  0)  (-1  1  0)  (-1  0  1)  (-1  1  0)
Note: your k-points are not as symmetric as your crystal!

1728 k-points: 12 x 12 x 12 Monkhorst-Pack grid
182 k-points in the irreducible part of the Brillouin zone
       k-points in crystal coordinates                weights
   0:     0.04166667    0.04166667   -0.04166667          6/1728
   1:     0.04166667    0.04166667    0.04166667          2/1728
   2:     0.12500000   -0.04166667   -0.04166667          6/1728
   3:     0.12500000    0.04166667   -0.12500000         12/1728
   4:     0.12500000    0.04166667   -0.04166667         12/1728
   5:     0.12500000    0.04166667    0.04166667          6/1728
   6:     0.12500000    0.12500000   -0.12500000          6/1728
   7:     0.12500000    0.12500000   -0.04166667          6/1728
   8:     0.12500000    0.12500000    0.04166667          6/1728
   9:     0.12500000    0.12500000    0.12500000          2/1728
          ...
 181:     0.45833333    0.45833333    0.45833333          2/1728

Wave functions: Plane wave expansion
  Cutoff energy: 200.000 eV
  Number of coefficients (min, max): 250, 271
  Pulay-stress correction: 0.000000 eV/Ang^3 (de/decut=0.000000)
  Using FFTW library
  ScaLapack parameters: grid=1x1, blocksize=None
  Wavefunction extrapolation:
    Improved wavefunction reuse through dual PAW basis 

Eigensolver
   Davidson(niter=2, smin=None, normalize=True) 

Densities:
  Coarse grid: 14*14*14 grid
  Fine grid: 28*28*28 grid
  Total Charge: 0.000000 

Density mixing:
  Method: separate
  Backend: pulay
  Linear mixing parameter: 0.05
  Mixing with 5 old densities
  Damping of long wave oscillations: 50 

Hamiltonian:
  XC and Coulomb potentials evaluated on a 28*28*28 grid
  Using the LDA Exchange-Correlation functional
 

Memory estimate:
  Process memory now: 179.24 MiB
  Calculator: 2.79 MiB
    Density: 1.03 MiB
      Arrays: 0.54 MiB
      Localized functions: 0.27 MiB
      Mixer: 0.21 MiB
    Hamiltonian: 0.36 MiB
      Arrays: 0.36 MiB
      XC: 0.00 MiB
      Poisson: 0.00 MiB
      vbar: 0.01 MiB
    Wavefunctions: 1.40 MiB
      Arrays psit_nG: 0.60 MiB
      Eigensolver: 0.06 MiB
      Projections: 0.06 MiB
      Projectors: 0.51 MiB
      PW-descriptor: 0.18 MiB

Total number of cores used: 10
Parallelization over k-points: 10

Number of atoms: 2
Number of atomic orbitals: 8
Number of bands in calculation: 8
Bands to converge: occupied states only
Number of valence electrons: 8

... initialized

******** Phonon calculation started *********
System changes: positions, numbers, cell, initial_magmoms, initial_charges 

Initialize ...

Si-setup:
  name: Silicon
  id: b152d83ba7c91a8f3191da15c74e1ae7
  Z: 14
  valence: 4
  core: 10
  charge: 0.0
  file: /apps/Common/Core/GPAW-setups/0.9.20000/Si.LDA.gz
  compensation charges: gauss, rc=0.33, lmax=2
  cutoffs: 1.86(filt), 2.06(core),
  valence states:
                energy  radius
    3s(2.00)   -10.878   1.058
    3p(2.00)    -4.162   1.058
    *s          16.334   1.058
    *p          23.049   1.058
    *d           0.000   1.058

  Using partial waves for Si as LCAO basis

Reference energy: -424370.511882

Spin-paired calculation

Occupation numbers:
  Fermi-Dirac: width=0.1000 eV

Convergence criteria:
  Maximum total energy change: 0.0005 eV / electron
  Maximum integral of absolute density change: 0.0001 electrons
  Maximum integral of absolute eigenstate change: 4e-08 eV^2
  Maximum number of iterations: 333

Symmetries present (total): 2

  ( 1  0  0)  ( 0  0  1)
  ( 0  1  0)  ( 0  1  0)
  ( 0  0  1)  ( 1  0  0)

1728 k-points: 12 x 12 x 12 Monkhorst-Pack grid
468 k-points in the irreducible part of the Brillouin zone
       k-points in crystal coordinates                weights
   0:     0.04166667   -0.45833333    0.04166667          2/1728
   1:     0.04166667   -0.37500000    0.04166667          2/1728
   2:     0.04166667   -0.29166667    0.04166667          2/1728
   3:     0.04166667   -0.20833333    0.04166667          2/1728
   4:     0.04166667   -0.12500000    0.04166667          2/1728
   5:     0.04166667   -0.04166667    0.04166667          2/1728
   6:     0.04166667    0.04166667   -0.04166667          4/1728
   7:     0.04166667    0.04166667    0.04166667          2/1728
   8:     0.04166667    0.12500000   -0.04166667          4/1728
   9:     0.04166667    0.12500000    0.04166667          2/1728
          ...
 467:     0.45833333    0.45833333    0.45833333          2/1728

Wave functions: Plane wave expansion
  Cutoff energy: 200.000 eV
  Number of coefficients (min, max): 6885, 6968
  Pulay-stress correction: 0.000000 eV/Ang^3 (de/decut=0.000000)
  Using FFTW library
  ScaLapack parameters: grid=1x1, blocksize=None
  Wavefunction extrapolation:
    Improved wavefunction reuse through dual PAW basis 

Eigensolver
   Davidson(niter=2, smin=None, normalize=True) 

Densities:
  Coarse grid: 40*40*40 grid
  Fine grid: 80*80*80 grid
  Total Charge: 0.000000 

Density mixing:
  Method: separate
  Backend: pulay
  Linear mixing parameter: 0.05
  Mixing with 5 old densities
  Damping of long wave oscillations: 50 

Hamiltonian:
  XC and Coulomb potentials evaluated on a 80*80*80 grid
  Using the LDA Exchange-Correlation functional
 

Memory estimate:
  Process memory now: 210.88 MiB
  Calculator: 813.73 MiB
    Density: 24.92 MiB
      Arrays: 12.70 MiB
      Localized functions: 7.34 MiB
      Mixer: 4.88 MiB
    Hamiltonian: 8.45 MiB
      Arrays: 8.30 MiB
      XC: 0.00 MiB
      Poisson: 0.00 MiB
      vbar: 0.15 MiB
    Wavefunctions: 780.36 MiB
      Arrays psit_nG: 655.38 MiB
      Eigensolver: 17.52 MiB
      Projections: 66.03 MiB
      Projectors: 34.10 MiB
      PW-descriptor: 7.33 MiB

Total number of cores used: 10
Parallelization over k-points: 10

Number of atoms: 54
Number of atomic orbitals: 216
Number of bands in calculation: 134
Bands to converge: occupied states only
Number of valence electrons: 216

... initialized

Initializing position-dependent things.

Density initialized from atomic densities
Creating initial wave functions:
  134 bands from LCAO basis set

                                                      
                                                      
                                                      
                                                      
                                             Si       
                                    Si                
                                         Si           
                            Si        Si              
                                Si                    
                              Si           Si         
                     Si Si     Si SSi                 
                          Si           Si             
                       Si Si        Si                
                 Si        Si  Si                     
               Si           Si           Si           
                   SSiSi      SiSSi                   
           Si           Si           Si               
                     Si  Si        Si                 
                Si        Si Si                       
             Si           Si                          
                 SSi Si     Si Si                     
         Si           Si                              
                    Si                                
              Si        Si                            
           Si                                         
                Si                                    
       Si                                             
                                                      
                                                      
                                                      
                                                      

Positions:
   0 Si     0.000000    0.000000    0.000000    ( 0.0000,  0.0000,  0.0000)
   1 Si     1.357500    1.307500    1.357500    ( 0.0000,  0.0000,  0.0000)
   2 Si     2.715000    2.715000    0.000000    ( 0.0000,  0.0000,  0.0000)
   3 Si     4.072500    4.072500    1.357500    ( 0.0000,  0.0000,  0.0000)
   4 Si     5.430000    5.430000    0.000000    ( 0.0000,  0.0000,  0.0000)
   5 Si     6.787500    6.787500    1.357500    ( 0.0000,  0.0000,  0.0000)
   6 Si     2.715000    0.000000    2.715000    ( 0.0000,  0.0000,  0.0000)
   7 Si     4.072500    1.357500    4.072500    ( 0.0000,  0.0000,  0.0000)
   8 Si     5.430000    2.715000    2.715000    ( 0.0000,  0.0000,  0.0000)
   9 Si     6.787500    4.072500    4.072500    ( 0.0000,  0.0000,  0.0000)
  10 Si     8.145000    5.430000    2.715000    ( 0.0000,  0.0000,  0.0000)
  11 Si     9.502500    6.787500    4.072500    ( 0.0000,  0.0000,  0.0000)
  12 Si     5.430000    0.000000    5.430000    ( 0.0000,  0.0000,  0.0000)
  13 Si     6.787500    1.357500    6.787500    ( 0.0000,  0.0000,  0.0000)
  14 Si     8.145000    2.715000    5.430000    ( 0.0000,  0.0000,  0.0000)
  15 Si     9.502500    4.072500    6.787500    ( 0.0000,  0.0000,  0.0000)
  16 Si    10.860000    5.430000    5.430000    ( 0.0000,  0.0000,  0.0000)
  17 Si    12.217500    6.787500    6.787500    ( 0.0000,  0.0000,  0.0000)
  18 Si     0.000000    2.715000    2.715000    ( 0.0000,  0.0000,  0.0000)
  19 Si     1.357500    4.072500    4.072500    ( 0.0000,  0.0000,  0.0000)
  20 Si     2.715000    5.430000    2.715000    ( 0.0000,  0.0000,  0.0000)
  21 Si     4.072500    6.787500    4.072500    ( 0.0000,  0.0000,  0.0000)
  22 Si     5.430000    8.145000    2.715000    ( 0.0000,  0.0000,  0.0000)
  23 Si     6.787500    9.502500    4.072500    ( 0.0000,  0.0000,  0.0000)
  24 Si     2.715000    2.715000    5.430000    ( 0.0000,  0.0000,  0.0000)
  25 Si     4.072500    4.072500    6.787500    ( 0.0000,  0.0000,  0.0000)
  26 Si     5.430000    5.430000    5.430000    ( 0.0000,  0.0000,  0.0000)
  27 Si     6.787500    6.787500    6.787500    ( 0.0000,  0.0000,  0.0000)
  28 Si     8.145000    8.145000    5.430000    ( 0.0000,  0.0000,  0.0000)
  29 Si     9.502500    9.502500    6.787500    ( 0.0000,  0.0000,  0.0000)
  30 Si     5.430000    2.715000    8.145000    ( 0.0000,  0.0000,  0.0000)
  31 Si     6.787500    4.072500    9.502500    ( 0.0000,  0.0000,  0.0000)
  32 Si     8.145000    5.430000    8.145000    ( 0.0000,  0.0000,  0.0000)
  33 Si     9.502500    6.787500    9.502500    ( 0.0000,  0.0000,  0.0000)
  34 Si    10.860000    8.145000    8.145000    ( 0.0000,  0.0000,  0.0000)
  35 Si    12.217500    9.502500    9.502500    ( 0.0000,  0.0000,  0.0000)
  36 Si     0.000000    5.430000    5.430000    ( 0.0000,  0.0000,  0.0000)
  37 Si     1.357500    6.787500    6.787500    ( 0.0000,  0.0000,  0.0000)
  38 Si     2.715000    8.145000    5.430000    ( 0.0000,  0.0000,  0.0000)
  39 Si     4.072500    9.502500    6.787500    ( 0.0000,  0.0000,  0.0000)
  40 Si     5.430000   10.860000    5.430000    ( 0.0000,  0.0000,  0.0000)
  41 Si     6.787500   12.217500    6.787500    ( 0.0000,  0.0000,  0.0000)
  42 Si     2.715000    5.430000    8.145000    ( 0.0000,  0.0000,  0.0000)
  43 Si     4.072500    6.787500    9.502500    ( 0.0000,  0.0000,  0.0000)
  44 Si     5.430000    8.145000    8.145000    ( 0.0000,  0.0000,  0.0000)
  45 Si     6.787500    9.502500    9.502500    ( 0.0000,  0.0000,  0.0000)
  46 Si     8.145000   10.860000    8.145000    ( 0.0000,  0.0000,  0.0000)
  47 Si     9.502500   12.217500    9.502500    ( 0.0000,  0.0000,  0.0000)
  48 Si     5.430000    5.430000   10.860000    ( 0.0000,  0.0000,  0.0000)
  49 Si     6.787500    6.787500   12.217500    ( 0.0000,  0.0000,  0.0000)
  50 Si     8.145000    8.145000   10.860000    ( 0.0000,  0.0000,  0.0000)
  51 Si     9.502500    9.502500   12.217500    ( 0.0000,  0.0000,  0.0000)
  52 Si    10.860000   10.860000   10.860000    ( 0.0000,  0.0000,  0.0000)
  53 Si    12.217500   12.217500   12.217500    ( 0.0000,  0.0000,  0.0000)

Unit cell:
           periodic     x           y           z      points  spacing
  1. axis:    yes    0.000000    8.145000    8.145000    40     0.2351
  2. axis:    yes    8.145000    0.000000    8.145000    40     0.2351
  3. axis:    yes    8.145000    8.145000    0.000000    40     0.2351

  Lengths:  11.518769  11.518769  11.518769
  Angles:   60.000000  60.000000  60.000000

Effective grid spacing dv^(1/3) = 0.2566

                     log10-error:    total        iterations:
           time      wfs    density  energy       fermi  poisson
iter:   1  03:31:03  +0.29   +inf  -325.026023    4             
iter:   2  03:33:14  -1.82  -0.80  -324.932201    2             
iter:   3  03:35:24  -1.33  -0.81  -323.536302    31            
iter:   4  03:37:35  -2.64  -1.09  -323.494572    2             
iter:   5  03:39:45  -3.61  -1.08  -323.681566    1             
iter:   6  03:41:55  -2.02  -1.07  -320.604870    5             
iter:   7  03:44:05  -3.60  -2.46  -320.625821    2             
iter:   8  03:46:15  -4.08  -2.25  -320.616136    3             
iter:   9  03:48:26  -4.97  -2.87  -320.615914    2             
iter:  10  03:50:36  -4.72  -3.32  -320.616778    2             
iter:  11  03:52:46  -4.90  -3.08  -320.615837    2             
iter:  12  03:54:56  -6.39  -3.23  -320.615781    2             
iter:  13  03:57:06  -6.73  -3.72  -320.615833    2             
iter:  14  03:59:16  -6.98  -3.68  -320.615780    2             
iter:  15  04:01:26  -6.66  -3.89  -320.615800    2             
iter:  16  04:03:36  -7.81  -3.86  -320.615788    1             
iter:  17  04:05:46  -7.02  -3.93  -320.615780    1             
iter:  18  04:07:57  -6.46  -4.04  -320.615806    1             
iter:  19  04:10:08  -7.04  -3.89  -320.615777    1             
iter:  20  04:12:18  -7.51  -4.28  -320.615773    1             

Converged after 20 iterations.

Dipole moment: (-79.011943, -79.671358, -79.011943) |e|*Ang

Energy contributions relative to reference atoms: (reference = -424370.511882)

Kinetic:       +423.007586
Potential:     -372.195314
External:        +0.000000
XC:            -370.157286
Entropy (-ST):   -0.027972
Local:           -1.256772
--------------------------
Free energy:   -320.629759
Extrapolated:  -320.615773

Fermi level: 5.37240

Showing only first 2 kpts
 Kpt  Band  Eigenvalues  Occupancy
  0   106      4.73487    0.00231
  0   107      4.74322    0.00231
  0   108      6.04826    0.00000
  0   109      6.09635    0.00000

  1   106      4.76021    0.00231
  1   107      4.84868    0.00230
  1   108      6.00510    0.00000
  1   109      6.09985    0.00000


Gap: 0.478 eV
Transition (v -> c):
  (s=0, k=7, n=107, [0.04, 0.04, 0.04]) -> (s=0, k=196, n=108, [0.29, 0.29, 0.04])
System created
---- Iteration: 1 ---- k=4 ----
Energy: -11.8724 eV ---- Time: 1.55 s
---- Iteration: 2 ---- k=8 ----
Energy: -11.8753 eV ---- Time: 1.83 s
---- Iteration: 3 ---- k=12 ----
Energy: -11.8753 eV ---- Time: 3.38 s
Written to DB
Optimal k-parameter: k=16
Calculator saved
Phononic structure calculation started
System created
---- Iteration: 1 ---- k=4 ----
Energy: -11.8724 eV ---- Time: 1.55 s
---- Iteration: 2 ---- k=8 ----
Energy: -11.8753 eV ---- Time: 1.83 s
---- Iteration: 3 ---- k=12 ----
Energy: -11.8753 eV ---- Time: 3.38 s
Written to DB
Optimal k-parameter: k=16
Calculator saved
Phononic structure calculation started

Forces in eV/Ang:
  0 Si   -0.11810   -0.16602   -0.11810
  1 Si   -0.00001    0.65743   -0.00001
  2 Si   -0.10336   -0.15831    0.10335
  3 Si   -0.01101   -0.00906    0.00370
  4 Si   -0.00005   -0.00087    0.00005
  5 Si   -0.01135   -0.00946   -0.00401
  6 Si    0.11810   -0.16603    0.11810
  7 Si   -0.00367    0.02558   -0.00367
  8 Si    0.00219    0.00242   -0.00258
  9 Si   -0.00273   -0.00229    0.00273
 10 Si    0.00223    0.00058   -0.00222
 11 Si    0.00400   -0.00947    0.01135
 12 Si    0.00000   -0.01686    0.00000
 13 Si    0.00368    0.02558    0.00368
 14 Si    0.00259    0.00243   -0.00218
 15 Si   -0.00371   -0.00907    0.01100
 16 Si   -0.00005   -0.00088    0.00005
 17 Si   -0.00244   -0.00179    0.00244
 18 Si    0.10335   -0.15831   -0.10336
 19 Si    0.00370   -0.00906   -0.01101
 20 Si    0.00222    0.00057    0.00222
 21 Si   -0.00267   -0.00225   -0.00267
 22 Si    0.00228    0.00256    0.00249
 23 Si   -0.00338    0.02522    0.00336
 24 Si   -0.00258    0.00242    0.00219
 25 Si    0.00273   -0.00229   -0.00273
 26 Si    0.00001    0.00067    0.00001
 27 Si    0.00266   -0.00226    0.00266
 28 Si   -0.00249    0.00255   -0.00228
 29 Si    0.00030   -0.00243    0.00005
 30 Si   -0.00218    0.00243    0.00259
 31 Si    0.01100   -0.00907   -0.00371
 32 Si   -0.00223    0.00056   -0.00223
 33 Si    0.00000   -0.00138    0.00000
 34 Si   -0.00020    0.00159    0.00021
 35 Si   -0.00005   -0.00244   -0.00029
 36 Si    0.00005   -0.00087   -0.00005
 37 Si   -0.00401   -0.00946   -0.01135
 38 Si    0.00249    0.00256    0.00228
 39 Si    0.00336    0.02522   -0.00338
 40 Si   -0.00001   -0.01633   -0.00001
 41 Si   -0.00248   -0.00174   -0.00248
 42 Si   -0.00222    0.00058    0.00223
 43 Si    0.01135   -0.00947    0.00400
 44 Si   -0.00228    0.00255   -0.00249
 45 Si    0.00005   -0.00243    0.00030
 46 Si   -0.00020    0.00156   -0.00020
 47 Si   -0.00000   -0.00147   -0.00000
 48 Si    0.00005   -0.00088   -0.00005
 49 Si    0.00244   -0.00179   -0.00244
 50 Si    0.00021    0.00159   -0.00020
 51 Si   -0.00029   -0.00244   -0.00005
 52 Si    0.00021    0.00157    0.00021
 53 Si    0.00248   -0.00175    0.00248

Writing ./phonons/ph_Si.1y-.pckl
System created
---- Iteration: 1 ---- k=4 ----
Energy: -11.8724 eV ---- Time: 1.55 s
---- Iteration: 2 ---- k=8 ----
Energy: -11.8753 eV ---- Time: 1.83 s
---- Iteration: 3 ---- k=12 ----
Energy: -11.8753 eV ---- Time: 3.38 s
Written to DB
Optimal k-parameter: k=16
Calculator saved
Phononic structure calculation started
System created
---- Iteration: 1 ---- k=4 ----
Energy: -11.8724 eV ---- Time: 1.55 s
---- Iteration: 2 ---- k=8 ----
Energy: -11.8753 eV ---- Time: 1.83 s
---- Iteration: 3 ---- k=12 ----
Energy: -11.8753 eV ---- Time: 3.38 s
Written to DB
Optimal k-parameter: k=16
Calculator saved
Phononic structure calculation started
System created
---- Iteration: 1 ---- k=4 ----
Energy: -11.8724 eV ---- Time: 1.55 s
---- Iteration: 2 ---- k=8 ----
Energy: -11.8753 eV ---- Time: 1.83 s
---- Iteration: 3 ---- k=12 ----
Energy: -11.8753 eV ---- Time: 3.38 s
Written to DB
Optimal k-parameter: k=16
Calculator saved
Phononic structure calculation started
System created
---- Iteration: 1 ---- k=4 ----
Energy: -11.8724 eV ---- Time: 1.55 s
---- Iteration: 2 ---- k=8 ----
Energy: -11.8753 eV ---- Time: 1.83 s
---- Iteration: 3 ---- k=12 ----
Energy: -11.8753 eV ---- Time: 3.38 s
Written to DB
Optimal k-parameter: k=16
Calculator saved
Phononic structure calculation started
System created
---- Iteration: 1 ---- k=4 ----
Energy: -11.8724 eV ---- Time: 1.55 s
---- Iteration: 2 ---- k=8 ----
Energy: -11.8753 eV ---- Time: 1.83 s
---- Iteration: 3 ---- k=12 ----
Energy: -11.8753 eV ---- Time: 3.38 s
Written to DB
Optimal k-parameter: k=16
Calculator saved
Phononic structure calculation started
System created
---- Iteration: 1 ---- k=4 ----
Energy: -11.8724 eV ---- Time: 1.55 s
---- Iteration: 2 ---- k=8 ----
Energy: -11.8753 eV ---- Time: 1.83 s
---- Iteration: 3 ---- k=12 ----
Energy: -11.8753 eV ---- Time: 3.38 s
Written to DB
Optimal k-parameter: k=16
Calculator saved
Phononic structure calculation started
System created
---- Iteration: 1 ---- k=4 ----
Energy: -11.8724 eV ---- Time: 1.55 s
---- Iteration: 2 ---- k=8 ----
Energy: -11.8753 eV ---- Time: 1.83 s
---- Iteration: 3 ---- k=12 ----
Energy: -11.8753 eV ---- Time: 3.38 s
Written to DB
Optimal k-parameter: k=16
Calculator saved
Phononic structure calculation started
System changes: positions 

Initializing position-dependent things.

Density initialized from wave functions
                                                      
                                                      
                                                      
                                                      
                                             Si       
                                    Si                
                                         Si           
                            Si        Si              
                                Si                    
                              Si           Si         
                     Si Si     Si SSi                 
                          Si           Si             
                       Si Si        Si                
                 Si        Si  Si                     
               Si           Si           Si           
                   SSiSi      SiSSi                   
           Si           Si           Si               
                     Si  Si        Si                 
                Si        Si Si                       
             Si           Si                          
                 SSi Si     Si Si                     
         Si           Si                              
                    Si                                
              Si        Si                            
           Si                                         
                Si                                    
       Si                                             
                                                      
                                                      
                                                      
                                                      

Positions:
   0 Si     0.000000    0.000000    0.000000    ( 0.0000,  0.0000,  0.0000)
   1 Si     1.357500    1.407500    1.357500    ( 0.0000,  0.0000,  0.0000)
   2 Si     2.715000    2.715000    0.000000    ( 0.0000,  0.0000,  0.0000)
   3 Si     4.072500    4.072500    1.357500    ( 0.0000,  0.0000,  0.0000)
   4 Si     5.430000    5.430000    0.000000    ( 0.0000,  0.0000,  0.0000)
   5 Si     6.787500    6.787500    1.357500    ( 0.0000,  0.0000,  0.0000)
   6 Si     2.715000    0.000000    2.715000    ( 0.0000,  0.0000,  0.0000)
   7 Si     4.072500    1.357500    4.072500    ( 0.0000,  0.0000,  0.0000)
   8 Si     5.430000    2.715000    2.715000    ( 0.0000,  0.0000,  0.0000)
   9 Si     6.787500    4.072500    4.072500    ( 0.0000,  0.0000,  0.0000)
  10 Si     8.145000    5.430000    2.715000    ( 0.0000,  0.0000,  0.0000)
  11 Si     9.502500    6.787500    4.072500    ( 0.0000,  0.0000,  0.0000)
  12 Si     5.430000    0.000000    5.430000    ( 0.0000,  0.0000,  0.0000)
  13 Si     6.787500    1.357500    6.787500    ( 0.0000,  0.0000,  0.0000)
  14 Si     8.145000    2.715000    5.430000    ( 0.0000,  0.0000,  0.0000)
  15 Si     9.502500    4.072500    6.787500    ( 0.0000,  0.0000,  0.0000)
  16 Si    10.860000    5.430000    5.430000    ( 0.0000,  0.0000,  0.0000)
  17 Si    12.217500    6.787500    6.787500    ( 0.0000,  0.0000,  0.0000)
  18 Si     0.000000    2.715000    2.715000    ( 0.0000,  0.0000,  0.0000)
  19 Si     1.357500    4.072500    4.072500    ( 0.0000,  0.0000,  0.0000)
  20 Si     2.715000    5.430000    2.715000    ( 0.0000,  0.0000,  0.0000)
  21 Si     4.072500    6.787500    4.072500    ( 0.0000,  0.0000,  0.0000)
  22 Si     5.430000    8.145000    2.715000    ( 0.0000,  0.0000,  0.0000)
  23 Si     6.787500    9.502500    4.072500    ( 0.0000,  0.0000,  0.0000)
  24 Si     2.715000    2.715000    5.430000    ( 0.0000,  0.0000,  0.0000)
  25 Si     4.072500    4.072500    6.787500    ( 0.0000,  0.0000,  0.0000)
  26 Si     5.430000    5.430000    5.430000    ( 0.0000,  0.0000,  0.0000)
  27 Si     6.787500    6.787500    6.787500    ( 0.0000,  0.0000,  0.0000)
  28 Si     8.145000    8.145000    5.430000    ( 0.0000,  0.0000,  0.0000)
  29 Si     9.502500    9.502500    6.787500    ( 0.0000,  0.0000,  0.0000)
  30 Si     5.430000    2.715000    8.145000    ( 0.0000,  0.0000,  0.0000)
  31 Si     6.787500    4.072500    9.502500    ( 0.0000,  0.0000,  0.0000)
  32 Si     8.145000    5.430000    8.145000    ( 0.0000,  0.0000,  0.0000)
  33 Si     9.502500    6.787500    9.502500    ( 0.0000,  0.0000,  0.0000)
  34 Si    10.860000    8.145000    8.145000    ( 0.0000,  0.0000,  0.0000)
  35 Si    12.217500    9.502500    9.502500    ( 0.0000,  0.0000,  0.0000)
  36 Si     0.000000    5.430000    5.430000    ( 0.0000,  0.0000,  0.0000)
  37 Si     1.357500    6.787500    6.787500    ( 0.0000,  0.0000,  0.0000)
  38 Si     2.715000    8.145000    5.430000    ( 0.0000,  0.0000,  0.0000)
  39 Si     4.072500    9.502500    6.787500    ( 0.0000,  0.0000,  0.0000)
  40 Si     5.430000   10.860000    5.430000    ( 0.0000,  0.0000,  0.0000)
  41 Si     6.787500   12.217500    6.787500    ( 0.0000,  0.0000,  0.0000)
  42 Si     2.715000    5.430000    8.145000    ( 0.0000,  0.0000,  0.0000)
  43 Si     4.072500    6.787500    9.502500    ( 0.0000,  0.0000,  0.0000)
  44 Si     5.430000    8.145000    8.145000    ( 0.0000,  0.0000,  0.0000)
  45 Si     6.787500    9.502500    9.502500    ( 0.0000,  0.0000,  0.0000)
  46 Si     8.145000   10.860000    8.145000    ( 0.0000,  0.0000,  0.0000)
  47 Si     9.502500   12.217500    9.502500    ( 0.0000,  0.0000,  0.0000)
  48 Si     5.430000    5.430000   10.860000    ( 0.0000,  0.0000,  0.0000)
  49 Si     6.787500    6.787500   12.217500    ( 0.0000,  0.0000,  0.0000)
  50 Si     8.145000    8.145000   10.860000    ( 0.0000,  0.0000,  0.0000)
  51 Si     9.502500    9.502500   12.217500    ( 0.0000,  0.0000,  0.0000)
  52 Si    10.860000   10.860000   10.860000    ( 0.0000,  0.0000,  0.0000)
  53 Si    12.217500   12.217500   12.217500    ( 0.0000,  0.0000,  0.0000)

Unit cell:
           periodic     x           y           z      points  spacing
  1. axis:    yes    0.000000    8.145000    8.145000    40     0.2351
  2. axis:    yes    8.145000    0.000000    8.145000    40     0.2351
  3. axis:    yes    8.145000    8.145000    0.000000    40     0.2351

  Lengths:  11.518769  11.518769  11.518769
  Angles:   60.000000  60.000000  60.000000

Effective grid spacing dv^(1/3) = 0.2566

                     log10-error:    total        iterations:
           time      wfs    density  energy       fermi  poisson
iter:   1  04:15:42  -3.09   +inf  -320.658750    1             
iter:   2  04:17:47  -4.92  -2.57  -320.645850    1             
iter:   3  04:19:52  -3.30  -2.65  -320.623692    1             
iter:   4  04:21:57  -4.77  -2.70  -320.618722    1             
iter:   5  04:24:01  -3.92  -2.86  -320.622545    1             
iter:   6  04:26:06  -3.74  -2.80  -320.620043    1             
iter:   7  04:28:11  -4.66  -2.92  -320.616162    1             
iter:   8  04:30:16  -5.41  -3.23  -320.615820    1             
iter:   9  04:32:21  -5.43  -3.62  -320.615977    1             
iter:  10  04:34:26  -5.88  -3.43  -320.615787    1             
iter:  11  04:36:30  -6.62  -3.93  -320.615780    1             
iter:  12  04:38:35  -8.03  -4.04  -320.615778    1             

Converged after 12 iterations.

Dipole moment: (-79.012220, -78.349955, -79.012220) |e|*Ang

Energy contributions relative to reference atoms: (reference = -424370.511882)

Kinetic:       +422.882477
Potential:     -372.086708
External:        +0.000000
XC:            -370.149807
Entropy (-ST):   -0.027972
Local:           -1.247754
--------------------------
Free energy:   -320.629764
Extrapolated:  -320.615778

Fermi level: 5.37240

Showing only first 2 kpts
 Kpt  Band  Eigenvalues  Occupancy
  0   106      4.72016    0.00231
  0   107      4.75012    0.00231
  0   108      6.03928    0.00000
  0   109      6.09726    0.00000

  1   106      4.74569    0.00231
  1   107      4.85561    0.00230
  1   108      5.99685    0.00000
  1   109      6.10069    0.00000


Gap: 0.483 eV
Transition (v -> c):
  (s=0, k=7, n=107, [0.04, 0.04, 0.04]) -> (s=0, k=175, n=108, [0.29, 0.04, 0.29])

Forces in eV/Ang:
  0 Si    0.10742    0.16638    0.10742
  1 Si    0.00000   -0.67440    0.00000
  2 Si    0.12071    0.17369   -0.12070
  3 Si    0.00788    0.00688   -0.00267
  4 Si    0.00479    0.00600    0.00022
  5 Si    0.00738    0.00649    0.00234
  6 Si   -0.10742    0.16638   -0.10742
  7 Si    0.00254   -0.03026    0.00254
  8 Si   -0.00379   -0.00345    0.00298
  9 Si    0.00205    0.00363   -0.00205
 10 Si   -0.00298   -0.00081    0.00298
 11 Si   -0.00234    0.00649   -0.00737
 12 Si   -0.00000    0.01724   -0.00000
 13 Si   -0.00255   -0.03026   -0.00255
 14 Si   -0.00298   -0.00345    0.00379
 15 Si    0.00266    0.00689   -0.00789
 16 Si   -0.00022    0.00600   -0.00479
 17 Si    0.00285    0.00364   -0.00285
 18 Si   -0.12070    0.17369    0.12071
 19 Si   -0.00267    0.00688    0.00788
 20 Si   -0.00292   -0.00079   -0.00292
 21 Si    0.00224    0.00360    0.00224
 22 Si   -0.00354   -0.00322   -0.00310
 23 Si    0.00276   -0.03073   -0.00276
 24 Si    0.00298   -0.00345   -0.00379
 25 Si   -0.00205    0.00363    0.00205
 26 Si    0.00000   -0.00106    0.00000
 27 Si   -0.00224    0.00360   -0.00224
 28 Si    0.00310   -0.00322    0.00355
 29 Si   -0.00103   -0.00006   -0.00003
 30 Si    0.00379   -0.00345   -0.00298
 31 Si   -0.00789    0.00689    0.00266
 32 Si    0.00293   -0.00079    0.00293
 33 Si   -0.00000    0.00544   -0.00000
 34 Si   -0.00108   -0.00340    0.00108
 35 Si    0.00003   -0.00006    0.00102
 36 Si    0.00022    0.00600    0.00479
 37 Si    0.00234    0.00649    0.00738
 38 Si   -0.00310   -0.00322   -0.00354
 39 Si   -0.00276   -0.03073    0.00276
 40 Si    0.00000    0.01746    0.00000
 41 Si    0.00303    0.00340    0.00303
 42 Si    0.00298   -0.00081   -0.00298
 43 Si   -0.00737    0.00649   -0.00234
 44 Si    0.00355   -0.00322    0.00310
 45 Si   -0.00003   -0.00006   -0.00103
 46 Si   -0.00116   -0.00337   -0.00116
 47 Si   -0.00000    0.00542   -0.00000
 48 Si   -0.00479    0.00600   -0.00022
 49 Si   -0.00285    0.00364    0.00285
 50 Si    0.00108   -0.00340   -0.00108
 51 Si    0.00102   -0.00006    0.00003
 52 Si    0.00116   -0.00337    0.00116
 53 Si   -0.00303    0.00341   -0.00303

Writing ./phonons/ph_Si.1y+.pckl
System changes: positions 

Initializing position-dependent things.

------------------ Task 7 done -------------------
