------------------ Task 7 start ------------------
System created
---- Iteration: 1 ---- k=4 ----
Energy: -11.8724 eV ---- Time: 1.54 s
---- Iteration: 2 ---- k=8 ----
Energy: -11.8753 eV ---- Time: 1.95 s
---- Iteration: 3 ---- k=12 ----
Energy: -11.8753 eV ---- Time: 3.62 s
Written to DB
Optimal k-parameter: k=16
Calculator saved

  ___ ___ ___ _ _ _  
 |   |   |_  | | | | 
 | | | | | . | | | | 
 |__ |  _|___|_____|  19.8.1
 |___|_|             

User:   ericlin@hebbe03-9
Date:   Thu Mar 12 09:45:48 2020
Arch:   x86_64
Pid:    30251
Python: 3.7.2
gpaw:   /apps/Hebbe7/software/MPI/intel/2019.1.144-GCC-8.2.0-2.31.1/impi/2018.4.274/GPAW/19.8.1-Python-3.7.2/lib/python3.7/site-packages/gpaw
_gpaw:  /apps/Hebbe7/software/MPI/intel/2019.1.144-GCC-8.2.0-2.31.1/impi/2018.4.274/GPAW/19.8.1-Python-3.7.2/bin/
        gpaw-python
ase:    /apps/Hebbe7/software/MPI/intel/2019.1.144-GCC-8.2.0-2.31.1/impi/2018.4.274/ASE/3.18.0-Python-3.7.2/lib/python3.7/site-packages/ase (version 3.18.0)
numpy:  /apps/Hebbe7/software/MPI/intel/2019.1.144-GCC-8.2.0-2.31.1/impi/2018.4.274/SciPy-bundle/2019.03/lib/python3.7/site-packages/numpy (version 1.16.2)
scipy:  /apps/Hebbe7/software/MPI/intel/2019.1.144-GCC-8.2.0-2.31.1/impi/2018.4.274/SciPy-bundle/2019.03/lib/python3.7/site-packages/scipy (version 1.2.1)
libxc:  4.3.4
units:  Angstrom and eV
cores:  10

Reading from Si_calc.gpw
Read dipole, energy, free_energy
Reading input parameters:
  kpts: [12 12 12]
  mode: {ecut: 200.0,
         gammacentered: False,
         name: pw}

Initialize ...

Si-setup:
  name: Silicon
  id: b152d83ba7c91a8f3191da15c74e1ae7
  Z: 14
  valence: 4
  core: 10
  charge: 0.0
  file: /apps/Common/Core/GPAW-setups/0.9.20000/Si.LDA.gz
  compensation charges: gauss, rc=0.33, lmax=2
  cutoffs: 1.86(filt), 2.06(core),
  valence states:
                energy  radius
    3s(2.00)   -10.878   1.058
    3p(2.00)    -4.162   1.058
    *s          16.334   1.058
    *p          23.049   1.058
    *d           0.000   1.058

  Using partial waves for Si as LCAO basis

Reference energy: -15717.426366

Spin-paired calculation

Occupation numbers:
  Fermi-Dirac: width=0.1000 eV

Convergence criteria:
  Maximum total energy change: 0.0005 eV / electron
  Maximum integral of absolute density change: 0.0001 electrons
  Maximum integral of absolute eigenstate change: 4e-08 eV^2
  Maximum number of iterations: 333

Symmetries present (total): 24

  ( 1  0  0)  ( 1  0  0)  ( 1  0 -1)  ( 1  0 -1)  ( 1 -1  0)  ( 1 -1  0)
  ( 0  1  0)  ( 0  0  1)  ( 0  1 -1)  ( 0  0 -1)  ( 0 -1  1)  ( 0 -1  0)
  ( 0  0  1)  ( 0  1  0)  ( 0  0 -1)  ( 0  1 -1)  ( 0 -1  0)  ( 0 -1  1)

  ( 0  1  0)  ( 0  1  0)  ( 0  1 -1)  ( 0  1 -1)  ( 0  0  1)  ( 0  0  1)
  ( 1  0  0)  ( 0  0  1)  ( 1  0 -1)  ( 0  0 -1)  ( 1  0  0)  ( 0  1  0)
  ( 0  0  1)  ( 1  0  0)  ( 0  0 -1)  ( 1  0 -1)  ( 0  1  0)  ( 1  0  0)

  ( 0  0 -1)  ( 0  0 -1)  ( 0 -1  1)  ( 0 -1  1)  ( 0 -1  0)  ( 0 -1  0)
  ( 1  0 -1)  ( 0  1 -1)  ( 1 -1  0)  ( 0 -1  0)  ( 1 -1  0)  ( 0 -1  1)
  ( 0  1 -1)  ( 1  0 -1)  ( 0 -1  0)  ( 1 -1  0)  ( 0 -1  1)  ( 1 -1  0)

  (-1  1  0)  (-1  1  0)  (-1  0  1)  (-1  0  1)  (-1  0  0)  (-1  0  0)
  (-1  0  1)  (-1  0  0)  (-1  1  0)  (-1  0  0)  (-1  1  0)  (-1  0  1)
  (-1  0  0)  (-1  0  1)  (-1  0  0)  (-1  1  0)  (-1  0  1)  (-1  1  0)
Note: your k-points are not as symmetric as your crystal!

1728 k-points: 12 x 12 x 12 Monkhorst-Pack grid
182 k-points in the irreducible part of the Brillouin zone
       k-points in crystal coordinates                weights
   0:     0.04166667    0.04166667   -0.04166667          6/1728
   1:     0.04166667    0.04166667    0.04166667          2/1728
   2:     0.12500000   -0.04166667   -0.04166667          6/1728
   3:     0.12500000    0.04166667   -0.12500000         12/1728
   4:     0.12500000    0.04166667   -0.04166667         12/1728
   5:     0.12500000    0.04166667    0.04166667          6/1728
   6:     0.12500000    0.12500000   -0.12500000          6/1728
   7:     0.12500000    0.12500000   -0.04166667          6/1728
   8:     0.12500000    0.12500000    0.04166667          6/1728
   9:     0.12500000    0.12500000    0.12500000          2/1728
          ...
 181:     0.45833333    0.45833333    0.45833333          2/1728

Wave functions: Plane wave expansion
  Cutoff energy: 200.000 eV
  Number of coefficients (min, max): 250, 271
  Pulay-stress correction: 0.000000 eV/Ang^3 (de/decut=0.000000)
  Using FFTW library
  ScaLapack parameters: grid=1x1, blocksize=None
  Wavefunction extrapolation:
    Improved wavefunction reuse through dual PAW basis 

Eigensolver
   Davidson(niter=2, smin=None, normalize=True) 

Densities:
  Coarse grid: 14*14*14 grid
  Fine grid: 28*28*28 grid
  Total Charge: 0.000000 

Density mixing:
  Method: separate
  Backend: pulay
  Linear mixing parameter: 0.05
  Mixing with 5 old densities
  Damping of long wave oscillations: 50 

Hamiltonian:
  XC and Coulomb potentials evaluated on a 28*28*28 grid
  Using the LDA Exchange-Correlation functional
 

Memory estimate:
  Process memory now: 115.01 MiB
  Calculator: 2.79 MiB
    Density: 1.03 MiB
      Arrays: 0.54 MiB
      Localized functions: 0.27 MiB
      Mixer: 0.21 MiB
    Hamiltonian: 0.36 MiB
      Arrays: 0.36 MiB
      XC: 0.00 MiB
      Poisson: 0.00 MiB
      vbar: 0.01 MiB
    Wavefunctions: 1.40 MiB
      Arrays psit_nG: 0.60 MiB
      Eigensolver: 0.06 MiB
      Projections: 0.06 MiB
      Projectors: 0.51 MiB
      PW-descriptor: 0.18 MiB

Total number of cores used: 10
Parallelization over k-points: 10

Number of atoms: 2
Number of atomic orbitals: 8
Number of bands in calculation: 8
Bands to converge: occupied states only
Number of valence electrons: 8

... initialized

Input parameters:
  fixdensity: True
  kpts: {npoints: 60,
         path: GXWKL}
  symmetry: off

Initialize ...

Si-setup:
  name: Silicon
  id: b152d83ba7c91a8f3191da15c74e1ae7
  Z: 14
  valence: 4
  core: 10
  charge: 0.0
  file: /apps/Common/Core/GPAW-setups/0.9.20000/Si.LDA.gz
  compensation charges: gauss, rc=0.33, lmax=2
  cutoffs: 1.86(filt), 2.06(core),
  valence states:
                energy  radius
    3s(2.00)   -10.878   1.058
    3p(2.00)    -4.162   1.058
    *s          16.334   1.058
    *p          23.049   1.058
    *d           0.000   1.058

  Using partial waves for Si as LCAO basis

Reference energy: -15717.426366

Spin-paired calculation

Occupation numbers:
  Fixed Fermi level
  Fermi-Dirac: width=0.1000 eV

Convergence criteria:
  Maximum total energy change: 0.0005 eV / electron
  Maximum integral of absolute density change: 0.0001 electrons
  Maximum integral of absolute eigenstate change: 4e-08 eV^2
  Maximum number of iterations: 333

Symmetries present (total): 1

  ( 1  0  0)
  ( 0  1  0)
  ( 0  0  1)

60 k-points
60 k-points in the irreducible part of the Brillouin zone
       k-points in crystal coordinates                weights
   0:     0.00000000    0.00000000    0.00000000       0.01666667
   1:     0.02173913    0.00000000    0.02173913       0.01666667
   2:     0.04347826    0.00000000    0.04347826       0.01666667
   3:     0.06521739    0.00000000    0.06521739       0.01666667
   4:     0.08695652    0.00000000    0.08695652       0.01666667
   5:     0.10869565    0.00000000    0.10869565       0.01666667
   6:     0.13043478    0.00000000    0.13043478       0.01666667
   7:     0.15217391    0.00000000    0.15217391       0.01666667
   8:     0.17391304    0.00000000    0.17391304       0.01666667
   9:     0.19565217    0.00000000    0.19565217       0.01666667
          ...
  59:     0.50000000    0.50000000    0.50000000       0.01666667

Wave functions: Plane wave expansion
  Cutoff energy: 200.000 eV
  Number of coefficients (min, max): 246, 267
  Pulay-stress correction: 0.000000 eV/Ang^3 (de/decut=0.000000)
  Using FFTW library
  ScaLapack parameters: grid=1x1, blocksize=None
  Wavefunction extrapolation:
    Improved wavefunction reuse through dual PAW basis 

Eigensolver
   Davidson(niter=2, smin=None, normalize=True) 

No density mixing

Memory estimate:
  Process memory now: 115.02 MiB
  Calculator: 1.96 MiB
    Density: 1.03 MiB
      Arrays: 0.54 MiB
      Localized functions: 0.27 MiB
      Mixer: 0.21 MiB
    Hamiltonian: 0.36 MiB
      Arrays: 0.36 MiB
      XC: 0.00 MiB
      Poisson: 0.00 MiB
      vbar: 0.01 MiB
    Wavefunctions: 0.57 MiB
      Arrays psit_nG: 0.20 MiB
      Eigensolver: 0.06 MiB
      Projections: 0.02 MiB
      Projectors: 0.17 MiB
      PW-descriptor: 0.13 MiB

Total number of cores used: 10
Parallelization over k-points: 10

Number of atoms: 2
Number of atomic orbitals: 8
Number of bands in calculation: 8
Bands to converge: occupied states only
Number of valence electrons: 8

... initialized

Initializing position-dependent things.

Creating initial wave functions:
  8 bands from LCAO basis set

                    
                    
                    
                    
           Si       
                    
       Si           
                    
                    
                    
                    

Positions:
   0 Si     0.000000    0.000000    0.000000    ( 0.0000,  0.0000,  0.0000)
   1 Si     1.357500    1.357500    1.357500    ( 0.0000,  0.0000,  0.0000)

Unit cell:
           periodic     x           y           z      points  spacing
  1. axis:    yes    0.000000    2.715000    2.715000    14     0.2239
  2. axis:    yes    2.715000    0.000000    2.715000    14     0.2239
  3. axis:    yes    2.715000    2.715000    0.000000    14     0.2239

  Lengths:   3.839590   3.839590   3.839590
  Angles:   60.000000  60.000000  60.000000

Effective grid spacing dv^(1/3) = 0.2443

                     log10-error:    total        iterations:
           time      wfs    density  energy       fermi  poisson
iter:   1  09:45:49  +0.97          -11.294583    2             
iter:   2  09:45:49  -2.00          -11.306667    2             
iter:   3  09:45:49  -3.51          -11.306954    2             
iter:   4  09:45:49  -4.70          -11.306967    2             
iter:   5  09:45:49  -5.69          -11.306969    2             
iter:   6  09:45:50  -6.60          -11.306969    2             
iter:   7  09:45:50  -7.46          -11.306969    2             

Converged after 7 iterations.

Dipole moment: (-2.925915, -2.925915, -2.925915) |e|*Ang

Energy contributions relative to reference atoms: (reference = -15717.426366)

Kinetic:        +16.235369
Potential:      -13.779902
External:        +0.000000
XC:             -13.709135
Entropy (-ST):   -0.013878
Local:           -0.046361
--------------------------
Free energy:    -11.313908
Extrapolated:   -11.306969

Fixed Fermi level: 5.37250

Showing only first 2 kpts
 Kpt  Band  Eigenvalues  Occupancy
  0     2      5.13866    0.03032
  0     3      5.13866    0.03032
  0     4      7.66949    0.00000
  0     5      7.66949    0.00000

  1     2      5.10267    0.03117
  1     3      5.10267    0.03117
  1     4      7.64777    0.00000
  1     5      7.71557    0.00000


Gap: 0.475 eV
Transition (v -> c):
  (s=0, k=0, n=3, [0.00, 0.00, 0.00]) -> (s=0, k=19, n=4, [0.41, 0.00, 0.41])
Electronic band structure calculated
Input parameters:
  kpts: {size: (28, 28, 28)}

Initialize ...

Si-setup:
  name: Silicon
  id: b152d83ba7c91a8f3191da15c74e1ae7
  Z: 14
  valence: 4
  core: 10
  charge: 0.0
  file: /apps/Common/Core/GPAW-setups/0.9.20000/Si.LDA.gz
  compensation charges: gauss, rc=0.33, lmax=2
  cutoffs: 1.86(filt), 2.06(core),
  valence states:
                energy  radius
    3s(2.00)   -10.878   1.058
    3p(2.00)    -4.162   1.058
    *s          16.334   1.058
    *p          23.049   1.058
    *d           0.000   1.058

  Using partial waves for Si as LCAO basis

Reference energy: -15717.426366

Spin-paired calculation

Occupation numbers:
  Fixed Fermi level
  Fermi-Dirac: width=0.1000 eV

Convergence criteria:
  Maximum total energy change: 0.0005 eV / electron
  Maximum integral of absolute density change: 0.0001 electrons
  Maximum integral of absolute eigenstate change: 4e-08 eV^2
  Maximum number of iterations: 333

Symmetries present (total): 1

  ( 1  0  0)
  ( 0  1  0)
  ( 0  0  1)

21952 k-points: 28 x 28 x 28 Monkhorst-Pack grid
21952 k-points in the irreducible part of the Brillouin zone
       k-points in crystal coordinates                weights
   0:    -0.48214286   -0.48214286   -0.48214286          1/21952
   1:    -0.48214286   -0.48214286   -0.44642857          1/21952
   2:    -0.48214286   -0.48214286   -0.41071429          1/21952
   3:    -0.48214286   -0.48214286   -0.37500000          1/21952
   4:    -0.48214286   -0.48214286   -0.33928571          1/21952
   5:    -0.48214286   -0.48214286   -0.30357143          1/21952
   6:    -0.48214286   -0.48214286   -0.26785714          1/21952
   7:    -0.48214286   -0.48214286   -0.23214286          1/21952
   8:    -0.48214286   -0.48214286   -0.19642857          1/21952
   9:    -0.48214286   -0.48214286   -0.16071429          1/21952
          ...
21951:     0.48214286    0.48214286    0.48214286          1/21952

Wave functions: Plane wave expansion
  Cutoff energy: 200.000 eV
  Number of coefficients (min, max): 248, 271
  Pulay-stress correction: 0.000000 eV/Ang^3 (de/decut=0.000000)
  Using FFTW library
  ScaLapack parameters: grid=1x1, blocksize=None
  Wavefunction extrapolation:
    Improved wavefunction reuse through dual PAW basis 

Eigensolver
   Davidson(niter=2, smin=None, normalize=True) 

No density mixing

Memory estimate:
  Process memory now: 128.04 MiB
  Calculator: 150.04 MiB
    Density: 1.03 MiB
      Arrays: 0.54 MiB
      Localized functions: 0.27 MiB
      Mixer: 0.21 MiB
    Hamiltonian: 0.36 MiB
      Arrays: 0.36 MiB
      XC: 0.00 MiB
      Poisson: 0.00 MiB
      vbar: 0.01 MiB
    Wavefunctions: 148.65 MiB
      Arrays psit_nG: 72.61 MiB
      Eigensolver: 0.06 MiB
      Projections: 6.97 MiB
      Projectors: 59.83 MiB
      PW-descriptor: 9.18 MiB

Total number of cores used: 10
Parallelization over k-points: 10

Number of atoms: 2
Number of atomic orbitals: 8
Number of bands in calculation: 8
Bands to converge: occupied states only
Number of valence electrons: 8

... initialized

Initializing position-dependent things.

Creating initial wave functions:
  8 bands from LCAO basis set

                    
                    
                    
                    
           Si       
                    
       Si           
                    
                    
                    
                    

Positions:
   0 Si     0.000000    0.000000    0.000000    ( 0.0000,  0.0000,  0.0000)
   1 Si     1.357500    1.357500    1.357500    ( 0.0000,  0.0000,  0.0000)

Unit cell:
           periodic     x           y           z      points  spacing
  1. axis:    yes    0.000000    2.715000    2.715000    14     0.2239
  2. axis:    yes    2.715000    0.000000    2.715000    14     0.2239
  3. axis:    yes    2.715000    2.715000    0.000000    14     0.2239

  Lengths:   3.839590   3.839590   3.839590
  Angles:   60.000000  60.000000  60.000000

Effective grid spacing dv^(1/3) = 0.2443

                     log10-error:    total        iterations:
           time      wfs    density  energy       fermi  poisson
iter:   1  09:46:51  +1.01          -11.864103    2             
iter:   2  09:47:07  -2.05          -11.874991    1             
iter:   3  09:47:24  -3.55          -11.875252    1             
iter:   4  09:47:40  -4.74          -11.875265    1             
iter:   5  09:47:56  -5.78          -11.875266    1             
iter:   6  09:48:12  -6.77          -11.875266    1             
iter:   7  09:48:28  -7.73          -11.875266    1             

Converged after 7 iterations.

Dipole moment: (-2.925915, -2.925915, -2.925915) |e|*Ang

Energy contributions relative to reference atoms: (reference = -15717.426366)

Kinetic:        +15.660649
Potential:      -13.779902
External:        +0.000000
XC:             -13.709135
Entropy (-ST):   -0.001033
Local:           -0.046361
--------------------------
Free energy:    -11.875782
Extrapolated:   -11.875266

Fixed Fermi level: 5.37250

Showing only first 2 kpts
 Kpt  Band  Eigenvalues  Occupancy
  0     2      3.94477    0.00009
  0     3      3.94477    0.00009
  0     4      6.56998    0.00000
  0     5      8.43964    0.00000

  1     2      3.82765    0.00009
  1     3      3.90025    0.00009
  1     4      6.70487    0.00000
  1     5      8.39800    0.00000


Gap: 0.497 eV
Transition (v -> c):
  (s=0, k=11382, n=3, [0.02, 0.02, 0.02]) -> (s=0, k=19989, n=4, [0.41, -0.02, 0.41])
Writing to Si_electrons.gpw (mode='')

Electronic structure calculation completed
Phononic structure calculation started

  ___ ___ ___ _ _ _  
 |   |   |_  | | | | 
 | | | | | . | | | | 
 |__ |  _|___|_____|  19.8.1
 |___|_|             

User:   ericlin@hebbe03-9
Date:   Thu Mar 12 09:48:39 2020
Arch:   x86_64
Pid:    30251
Python: 3.7.2
gpaw:   /apps/Hebbe7/software/MPI/intel/2019.1.144-GCC-8.2.0-2.31.1/impi/2018.4.274/GPAW/19.8.1-Python-3.7.2/lib/python3.7/site-packages/gpaw
_gpaw:  /apps/Hebbe7/software/MPI/intel/2019.1.144-GCC-8.2.0-2.31.1/impi/2018.4.274/GPAW/19.8.1-Python-3.7.2/bin/
        gpaw-python
ase:    /apps/Hebbe7/software/MPI/intel/2019.1.144-GCC-8.2.0-2.31.1/impi/2018.4.274/ASE/3.18.0-Python-3.7.2/lib/python3.7/site-packages/ase (version 3.18.0)
numpy:  /apps/Hebbe7/software/MPI/intel/2019.1.144-GCC-8.2.0-2.31.1/impi/2018.4.274/SciPy-bundle/2019.03/lib/python3.7/site-packages/numpy (version 1.16.2)
scipy:  /apps/Hebbe7/software/MPI/intel/2019.1.144-GCC-8.2.0-2.31.1/impi/2018.4.274/SciPy-bundle/2019.03/lib/python3.7/site-packages/scipy (version 1.2.1)
libxc:  4.3.4
units:  Angstrom and eV
cores:  10

Reading from Si_calc.gpw
Read dipole, energy, free_energy
Reading input parameters:
  kpts: [12 12 12]
  mode: {ecut: 200.0,
         gammacentered: False,
         name: pw}

Initialize ...

Si-setup:
  name: Silicon
  id: b152d83ba7c91a8f3191da15c74e1ae7
  Z: 14
  valence: 4
  core: 10
  charge: 0.0
  file: /apps/Common/Core/GPAW-setups/0.9.20000/Si.LDA.gz
  compensation charges: gauss, rc=0.33, lmax=2
  cutoffs: 1.86(filt), 2.06(core),
  valence states:
                energy  radius
    3s(2.00)   -10.878   1.058
    3p(2.00)    -4.162   1.058
    *s          16.334   1.058
    *p          23.049   1.058
    *d           0.000   1.058

  Using partial waves for Si as LCAO basis

Reference energy: -15717.426366

Spin-paired calculation

Occupation numbers:
  Fermi-Dirac: width=0.1000 eV

Convergence criteria:
  Maximum total energy change: 0.0005 eV / electron
  Maximum integral of absolute density change: 0.0001 electrons
  Maximum integral of absolute eigenstate change: 4e-08 eV^2
  Maximum number of iterations: 333

Symmetries present (total): 24

  ( 1  0  0)  ( 1  0  0)  ( 1  0 -1)  ( 1  0 -1)  ( 1 -1  0)  ( 1 -1  0)
  ( 0  1  0)  ( 0  0  1)  ( 0  1 -1)  ( 0  0 -1)  ( 0 -1  1)  ( 0 -1  0)
  ( 0  0  1)  ( 0  1  0)  ( 0  0 -1)  ( 0  1 -1)  ( 0 -1  0)  ( 0 -1  1)

  ( 0  1  0)  ( 0  1  0)  ( 0  1 -1)  ( 0  1 -1)  ( 0  0  1)  ( 0  0  1)
  ( 1  0  0)  ( 0  0  1)  ( 1  0 -1)  ( 0  0 -1)  ( 1  0  0)  ( 0  1  0)
  ( 0  0  1)  ( 1  0  0)  ( 0  0 -1)  ( 1  0 -1)  ( 0  1  0)  ( 1  0  0)

  ( 0  0 -1)  ( 0  0 -1)  ( 0 -1  1)  ( 0 -1  1)  ( 0 -1  0)  ( 0 -1  0)
  ( 1  0 -1)  ( 0  1 -1)  ( 1 -1  0)  ( 0 -1  0)  ( 1 -1  0)  ( 0 -1  1)
  ( 0  1 -1)  ( 1  0 -1)  ( 0 -1  0)  ( 1 -1  0)  ( 0 -1  1)  ( 1 -1  0)

  (-1  1  0)  (-1  1  0)  (-1  0  1)  (-1  0  1)  (-1  0  0)  (-1  0  0)
  (-1  0  1)  (-1  0  0)  (-1  1  0)  (-1  0  0)  (-1  1  0)  (-1  0  1)
  (-1  0  0)  (-1  0  1)  (-1  0  0)  (-1  1  0)  (-1  0  1)  (-1  1  0)
Note: your k-points are not as symmetric as your crystal!

1728 k-points: 12 x 12 x 12 Monkhorst-Pack grid
182 k-points in the irreducible part of the Brillouin zone
       k-points in crystal coordinates                weights
   0:     0.04166667    0.04166667   -0.04166667          6/1728
   1:     0.04166667    0.04166667    0.04166667          2/1728
   2:     0.12500000   -0.04166667   -0.04166667          6/1728
   3:     0.12500000    0.04166667   -0.12500000         12/1728
   4:     0.12500000    0.04166667   -0.04166667         12/1728
   5:     0.12500000    0.04166667    0.04166667          6/1728
   6:     0.12500000    0.12500000   -0.12500000          6/1728
   7:     0.12500000    0.12500000   -0.04166667          6/1728
   8:     0.12500000    0.12500000    0.04166667          6/1728
   9:     0.12500000    0.12500000    0.12500000          2/1728
          ...
 181:     0.45833333    0.45833333    0.45833333          2/1728

Wave functions: Plane wave expansion
  Cutoff energy: 200.000 eV
  Number of coefficients (min, max): 250, 271
  Pulay-stress correction: 0.000000 eV/Ang^3 (de/decut=0.000000)
  Using FFTW library
  ScaLapack parameters: grid=1x1, blocksize=None
  Wavefunction extrapolation:
    Improved wavefunction reuse through dual PAW basis 

Eigensolver
   Davidson(niter=2, smin=None, normalize=True) 

Densities:
  Coarse grid: 14*14*14 grid
  Fine grid: 28*28*28 grid
  Total Charge: 0.000000 

Density mixing:
  Method: separate
  Backend: pulay
  Linear mixing parameter: 0.05
  Mixing with 5 old densities
  Damping of long wave oscillations: 50 

Hamiltonian:
  XC and Coulomb potentials evaluated on a 28*28*28 grid
  Using the LDA Exchange-Correlation functional
 

Memory estimate:
  Process memory now: 360.17 MiB
  Calculator: 2.79 MiB
    Density: 1.03 MiB
      Arrays: 0.54 MiB
      Localized functions: 0.27 MiB
      Mixer: 0.21 MiB
    Hamiltonian: 0.36 MiB
      Arrays: 0.36 MiB
      XC: 0.00 MiB
      Poisson: 0.00 MiB
      vbar: 0.01 MiB
    Wavefunctions: 1.40 MiB
      Arrays psit_nG: 0.60 MiB
      Eigensolver: 0.06 MiB
      Projections: 0.06 MiB
      Projectors: 0.51 MiB
      PW-descriptor: 0.18 MiB

Total number of cores used: 10
Parallelization over k-points: 10

Number of atoms: 2
Number of atomic orbitals: 8
Number of bands in calculation: 8
Bands to converge: occupied states only
Number of valence electrons: 8

---- Iteration: 1 ---- k=4 ----
Energy: -11.8724 eV ---- Time: 1.54 s
---- Iteration: 2 ---- k=8 ----
Energy: -11.8753 eV ---- Time: 1.95 s
---- Iteration: 3 ---- k=12 ----
Energy: -11.8753 eV ---- Time: 3.62 s
Written to DB
Phononic structure calculation started
---- Iteration: 1 ---- k=4 ----
Energy: -11.8724 eV ---- Time: 1.54 s
---- Iteration: 2 ---- k=8 ----
Energy: -11.8753 eV ---- Time: 1.95 s
---- Iteration: 3 ---- k=12 ----
Energy: -11.8753 eV ---- Time: 3.62 s
Written to DB
Phononic structure calculation started
---- Iteration: 1 ---- k=4 ----
Energy: -11.8724 eV ---- Time: 1.54 s
---- Iteration: 2 ---- k=8 ----
Energy: -11.8753 eV ---- Time: 1.95 s
---- Iteration: 3 ---- k=12 ----
Energy: -11.8753 eV ---- Time: 3.62 s
Written to DB
Phononic structure calculation started
---- Iteration: 1 ---- k=4 ----
Energy: -11.8724 eV ---- Time: 1.54 s
---- Iteration: 2 ---- k=8 ----
Energy: -11.8753 eV ---- Time: 1.95 s
---- Iteration: 3 ---- k=12 ----
Energy: -11.8753 eV ---- Time: 3.62 s
Written to DB
Phononic structure calculation started
---- Iteration: 1 ---- k=4 ----
Energy: -11.8724 eV ---- Time: 1.54 s
---- Iteration: 2 ---- k=8 ----
Energy: -11.8753 eV ---- Time: 1.95 s
---- Iteration: 3 ---- k=12 ----
Energy: -11.8753 eV ---- Time: 3.62 s
Written to DB
Phononic structure calculation started
---- Iteration: 1 ---- k=4 ----
Energy: -11.8724 eV ---- Time: 1.54 s
---- Iteration: 2 ---- k=8 ----
Energy: -11.8753 eV ---- Time: 1.95 s
---- Iteration: 3 ---- k=12 ----
Energy: -11.8753 eV ---- Time: 3.62 s
Written to DB
Phononic structure calculation started
---- Iteration: 1 ---- k=4 ----
Energy: -11.8724 eV ---- Time: 1.54 s
---- Iteration: 2 ---- k=8 ----
Energy: -11.8753 eV ---- Time: 1.95 s
---- Iteration: 3 ---- k=12 ----
Energy: -11.8753 eV ---- Time: 3.62 s
Written to DB
Phononic structure calculation started
---- Iteration: 1 ---- k=4 ----
Energy: -11.8724 eV ---- Time: 1.54 s
---- Iteration: 2 ---- k=8 ----
Energy: -11.8753 eV ---- Time: 1.95 s
---- Iteration: 3 ---- k=12 ----
Energy: -11.8753 eV ---- Time: 3.62 s
Written to DB
Phononic structure calculation started
---- Iteration: 1 ---- k=4 ----
Energy: -11.8724 eV ---- Time: 1.54 s
---- Iteration: 2 ---- k=8 ----
Energy: -11.8753 eV ---- Time: 1.95 s
---- Iteration: 3 ---- k=12 ----
Energy: -11.8753 eV ---- Time: 3.62 s
Written to DB
Phononic structure calculation started
... initialized

Timing:                              incl.     excl.
-----------------------------------------------------------
Hamiltonian:                         0.070     0.001   0.0% |
 Atomic:                             0.033     0.033   0.0% |
  XC Correction:                     0.000     0.000   0.0% |
 Calculate atomic Hamiltonians:      0.001     0.001   0.0% |
 Communicate:                        0.027     0.027   0.0% |
 Poisson:                            0.000     0.000   0.0% |
 XC 3D grid:                         0.008     0.008   0.0% |
LCAO initialization:                41.044     0.082   0.0% |
 LCAO eigensolver:                   5.996     0.091   0.1% |
  Calculate projections:             0.062     0.062   0.0% |
  DenseAtomicCorrection:             0.235     0.235   0.1% |
  Distribute overlap matrix:         0.045     0.045   0.0% |
  Orbital Layouts:                   0.195     0.195   0.1% |
  Potential matrix:                  0.068     0.068   0.0% |
  Sum over cells:                    5.301     5.301   3.1% ||
 LCAO to grid:                      23.625    23.625  13.8% |-----|
 Set positions (LCAO WFS):          11.341     1.729   1.0% |
  Basic WFS set positions:           0.000     0.000   0.0% |
  Basis functions set positions:     0.000     0.000   0.0% |
  P tci:                             3.905     3.905   2.3% ||
  ST tci:                            5.661     5.661   3.3% ||
  mktci:                             0.046     0.046   0.0% |
PWDescriptor:                        0.278     0.278   0.2% |
Redistribute:                        0.000     0.000   0.0% |
SCF-cycle:                         115.386    11.041   6.4% |--|
 Davidson:                         102.963    29.728  17.3% |------|
  Apply H:                           9.202     7.873   4.6% |-|
   HMM T:                            1.329     1.329   0.8% |
  Subspace diag:                    17.309     1.275   0.7% |
   calc_h_matrix:                   12.652     3.195   1.9% ||
    Apply H:                         9.457     7.963   4.6% |-|
     HMM T:                          1.494     1.494   0.9% |
   diagonalize:                      1.994     1.994   1.2% |
   rotate_psi:                       1.388     1.388   0.8% |
  calc. matrices:                   38.959    20.580  12.0% |----|
   Apply H:                         18.379    15.688   9.1% |---|
    HMM T:                           2.691     2.691   1.6% ||
  diagonalize:                       5.814     5.814   3.4% ||
  rotate_psi:                        1.951     1.951   1.1% |
 Orthonormalize:                     1.382     0.188   0.1% |
  calc_s_matrix:                     0.336     0.336   0.2% |
  inverse-cholesky:                  0.335     0.335   0.2% |
  projections:                       0.443     0.443   0.3% |
  rotate_psi_s:                      0.079     0.079   0.0% |
Set symmetry:                        0.146     0.146   0.1% |
Other:                              14.604    14.604   8.5% |--|
-----------------------------------------------------------
Total:                                       171.529 100.0%

Memory usage: 360.17 MiB
Date: Thu Mar 12 09:48:40 2020
Input parameters:
  symmetry: off

******** Phonon calculation started *********
******** Phonon calculation completed *********
------------------ Task 7 done -------------------
