------------------ Task 7 start ------------------
System created
---- Iteration: 1 ---- k=4 ----
Energy: -11.8724 eV ---- Time: 1.68 s
---- Iteration: 2 ---- k=8 ----
Energy: -11.8753 eV ---- Time: 1.67 s
---- Iteration: 3 ---- k=12 ----
Energy: -11.8753 eV ---- Time: 2.51 s
Written to DB
Optimal k-parameter: k=16
16
Calculator saved
Phononic structure calculation started

  ___ ___ ___ _ _ _  
 |   |   |_  | | | | 
 | | | | | . | | | | 
 |__ |  _|___|_____|  19.8.1
 |___|_|             

User:   ericlin@hebbe08-5
Date:   Fri Mar 13 06:10:37 2020
Arch:   x86_64
Pid:    10471
Python: 3.7.2
gpaw:   /apps/Hebbe7/software/MPI/intel/2019.1.144-GCC-8.2.0-2.31.1/impi/2018.4.274/GPAW/19.8.1-Python-3.7.2/lib/python3.7/site-packages/gpaw
_gpaw:  /apps/Hebbe7/software/MPI/intel/2019.1.144-GCC-8.2.0-2.31.1/impi/2018.4.274/GPAW/19.8.1-Python-3.7.2/bin/
        gpaw-python
ase:    /apps/Hebbe7/software/MPI/intel/2019.1.144-GCC-8.2.0-2.31.1/impi/2018.4.274/ASE/3.18.0-Python-3.7.2/lib/python3.7/site-packages/ase (version 3.18.0)
numpy:  /apps/Hebbe7/software/MPI/intel/2019.1.144-GCC-8.2.0-2.31.1/impi/2018.4.274/SciPy-bundle/2019.03/lib/python3.7/site-packages/numpy (version 1.16.2)
scipy:  /apps/Hebbe7/software/MPI/intel/2019.1.144-GCC-8.2.0-2.31.1/impi/2018.4.274/SciPy-bundle/2019.03/lib/python3.7/site-packages/scipy (version 1.2.1)
libxc:  4.3.4
units:  Angstrom and eV
cores:  20

Reading from Si_calc.gpw
Read dipole, energy, free_energy
Reading input parameters:
  kpts: [12 12 12]
  mode: {ecut: 200.0,
         gammacentered: False,
         name: pw}

Initialize ...

Si-setup:
  name: Silicon
  id: b152d83ba7c91a8f3191da15c74e1ae7
  Z: 14
  valence: 4
  core: 10
  charge: 0.0
  file: /apps/Common/Core/GPAW-setups/0.9.20000/Si.LDA.gz
  compensation charges: gauss, rc=0.33, lmax=2
  cutoffs: 1.86(filt), 2.06(core),
  valence states:
                energy  radius
    3s(2.00)   -10.878   1.058
    3p(2.00)    -4.162   1.058
    *s          16.334   1.058
    *p          23.049   1.058
    *d           0.000   1.058

  Using partial waves for Si as LCAO basis

Reference energy: -15717.426366

Spin-paired calculation

Occupation numbers:
  Fermi-Dirac: width=0.1000 eV

Convergence criteria:
  Maximum total energy change: 0.0005 eV / electron
  Maximum integral of absolute density change: 0.0001 electrons
  Maximum integral of absolute eigenstate change: 4e-08 eV^2
  Maximum number of iterations: 333

Symmetries present (total): 24

  ( 1  0  0)  ( 1  0  0)  ( 1  0 -1)  ( 1  0 -1)  ( 1 -1  0)  ( 1 -1  0)
  ( 0  1  0)  ( 0  0  1)  ( 0  1 -1)  ( 0  0 -1)  ( 0 -1  1)  ( 0 -1  0)
  ( 0  0  1)  ( 0  1  0)  ( 0  0 -1)  ( 0  1 -1)  ( 0 -1  0)  ( 0 -1  1)

  ( 0  1  0)  ( 0  1  0)  ( 0  1 -1)  ( 0  1 -1)  ( 0  0  1)  ( 0  0  1)
  ( 1  0  0)  ( 0  0  1)  ( 1  0 -1)  ( 0  0 -1)  ( 1  0  0)  ( 0  1  0)
  ( 0  0  1)  ( 1  0  0)  ( 0  0 -1)  ( 1  0 -1)  ( 0  1  0)  ( 1  0  0)

  ( 0  0 -1)  ( 0  0 -1)  ( 0 -1  1)  ( 0 -1  1)  ( 0 -1  0)  ( 0 -1  0)
  ( 1  0 -1)  ( 0  1 -1)  ( 1 -1  0)  ( 0 -1  0)  ( 1 -1  0)  ( 0 -1  1)
  ( 0  1 -1)  ( 1  0 -1)  ( 0 -1  0)  ( 1 -1  0)  ( 0 -1  1)  ( 1 -1  0)

  (-1  1  0)  (-1  1  0)  (-1  0  1)  (-1  0  1)  (-1  0  0)  (-1  0  0)
  (-1  0  1)  (-1  0  0)  (-1  1  0)  (-1  0  0)  (-1  1  0)  (-1  0  1)
  (-1  0  0)  (-1  0  1)  (-1  0  0)  (-1  1  0)  (-1  0  1)  (-1  1  0)
Note: your k-points are not as symmetric as your crystal!

1728 k-points: 12 x 12 x 12 Monkhorst-Pack grid
182 k-points in the irreducible part of the Brillouin zone
       k-points in crystal coordinates                weights
   0:     0.04166667    0.04166667   -0.04166667          6/1728
   1:     0.04166667    0.04166667    0.04166667          2/1728
   2:     0.12500000   -0.04166667   -0.04166667          6/1728
   3:     0.12500000    0.04166667   -0.12500000         12/1728
   4:     0.12500000    0.04166667   -0.04166667         12/1728
   5:     0.12500000    0.04166667    0.04166667          6/1728
   6:     0.12500000    0.12500000   -0.12500000          6/1728
   7:     0.12500000    0.12500000   -0.04166667          6/1728
   8:     0.12500000    0.12500000    0.04166667          6/1728
   9:     0.12500000    0.12500000    0.12500000          2/1728
          ...
 181:     0.45833333    0.45833333    0.45833333          2/1728

Wave functions: Plane wave expansion
  Cutoff energy: 200.000 eV
  Number of coefficients (min, max): 250, 271
  Pulay-stress correction: 0.000000 eV/Ang^3 (de/decut=0.000000)
  Using FFTW library
  ScaLapack parameters: grid=1x1, blocksize=None
  Wavefunction extrapolation:
    Improved wavefunction reuse through dual PAW basis 

Eigensolver
   Davidson(niter=2, smin=None, normalize=True) 

Densities:
  Coarse grid: 14*14*14 grid
  Fine grid: 28*28*28 grid
  Total Charge: 0.000000 

Density mixing:
  Method: separate
  Backend: pulay
  Linear mixing parameter: 0.05
  Mixing with 5 old densities
  Damping of long wave oscillations: 50 

Hamiltonian:
  XC and Coulomb potentials evaluated on a 28*28*28 grid
  Using the LDA Exchange-Correlation functional
 

Memory estimate:
  Process memory now: 97.44 MiB
  Calculator: 2.17 MiB
    Density: 1.03 MiB
      Arrays: 0.54 MiB
      Localized functions: 0.27 MiB
      Mixer: 0.21 MiB
    Hamiltonian: 0.36 MiB
      Arrays: 0.36 MiB
      XC: 0.00 MiB
      Poisson: 0.00 MiB
      vbar: 0.01 MiB
    Wavefunctions: 0.79 MiB
      Arrays psit_nG: 0.30 MiB
      Eigensolver: 0.06 MiB
      Projections: 0.03 MiB
      Projectors: 0.25 MiB
      PW-descriptor: 0.14 MiB

Total number of cores used: 20
Parallelization over k-points: 20

Number of atoms: 2
Number of atomic orbitals: 8
Number of bands in calculation: 8
Bands to converge: occupied states only
Number of valence electrons: 8

... initialized

Input parameters:
  symmetry: off

******** Phonon calculation started *********
System changes: positions, numbers, cell, initial_magmoms, initial_charges 

Initialize ...

Si-setup:
  name: Silicon
  id: b152d83ba7c91a8f3191da15c74e1ae7
  Z: 14
  valence: 4
  core: 10
  charge: 0.0
  file: /apps/Common/Core/GPAW-setups/0.9.20000/Si.LDA.gz
  compensation charges: gauss, rc=0.33, lmax=2
  cutoffs: 1.86(filt), 2.06(core),
  valence states:
                energy  radius
    3s(2.00)   -10.878   1.058
    3p(2.00)    -4.162   1.058
    *s          16.334   1.058
    *p          23.049   1.058
    *d           0.000   1.058

  Using partial waves for Si as LCAO basis

Reference energy: -282913.674588

Spin-paired calculation

Occupation numbers:
  Fermi-Dirac: width=0.1000 eV

Convergence criteria:
  Maximum total energy change: 0.0005 eV / electron
  Maximum integral of absolute density change: 0.0001 electrons
  Maximum integral of absolute eigenstate change: 4e-08 eV^2
  Maximum number of iterations: 333

Symmetries present (total): 1

  ( 1  0  0)
  ( 0  1  0)
  ( 0  0  1)

1728 k-points: 12 x 12 x 12 Monkhorst-Pack grid
1728 k-points in the irreducible part of the Brillouin zone
       k-points in crystal coordinates                weights
   0:    -0.45833333   -0.45833333   -0.45833333          1/1728
   1:    -0.45833333   -0.45833333   -0.37500000          1/1728
   2:    -0.45833333   -0.45833333   -0.29166667          1/1728
   3:    -0.45833333   -0.45833333   -0.20833333          1/1728
   4:    -0.45833333   -0.45833333   -0.12500000          1/1728
   5:    -0.45833333   -0.45833333   -0.04166667          1/1728
   6:    -0.45833333   -0.45833333    0.04166667          1/1728
   7:    -0.45833333   -0.45833333    0.12500000          1/1728
   8:    -0.45833333   -0.45833333    0.20833333          1/1728
   9:    -0.45833333   -0.45833333    0.29166667          1/1728
          ...
1727:     0.45833333    0.45833333    0.45833333          1/1728

Wave functions: Plane wave expansion
  Cutoff energy: 200.000 eV
  Number of coefficients (min, max): 4598, 4651
  Pulay-stress correction: 0.000000 eV/Ang^3 (de/decut=0.000000)
  Using FFTW library
  ScaLapack parameters: grid=1x1, blocksize=None
  Wavefunction extrapolation:
    Improved wavefunction reuse through dual PAW basis 

Eigensolver
   Davidson(niter=2, smin=None, normalize=True) 

Densities:
  Coarse grid: 40*40*27 grid
  Fine grid: 80*80*54 grid
  Total Charge: 0.000000 

Density mixing:
  Method: separate
  Backend: pulay
  Linear mixing parameter: 0.05
  Mixing with 5 old densities
  Damping of long wave oscillations: 50 

Hamiltonian:
  XC and Coulomb potentials evaluated on a 80*80*54 grid
  Using the LDA Exchange-Correlation functional
 

Memory estimate:
  Process memory now: 121.41 MiB
  Calculator: 692.09 MiB
    Density: 16.76 MiB
      Arrays: 8.57 MiB
      Localized functions: 4.89 MiB
      Mixer: 3.30 MiB
    Hamiltonian: 5.70 MiB
      Arrays: 5.60 MiB
      XC: 0.00 MiB
      Poisson: 0.00 MiB
      vbar: 0.10 MiB
    Wavefunctions: 669.63 MiB
      Arrays psit_nG: 555.40 MiB
      Eigensolver: 8.08 MiB
      Projections: 55.89 MiB
      Projectors: 42.51 MiB
      PW-descriptor: 7.75 MiB

Total number of cores used: 20
Parallelization over k-points: 20

Number of atoms: 36
Number of atomic orbitals: 144
Number of bands in calculation: 91
Bands to converge: occupied states only
Number of valence electrons: 144

... initialized

Initializing position-dependent things.

Density initialized from atomic densities
Creating initial wave functions:
  91 bands from LCAO basis set

                                             
                                             
                                             
                                             
                                    Si       
                            Si               
                                Si           
                             Si              
                        Si                   
                     Si  Si       Si         
                       Si Si                 
                 Si           Si             
              Si            Si               
                   Si Si                     
          Si       Si   Si       Si          
                     Si Si                   
               Si            Si              
             Si           Si                 
                 Si Si                       
         Si       Si  Si                     
                   Si                        
              Si                             
           Si                                
               Si                            
       Si                                    
                                             
                                             
                                             
                                             

Positions:
   0 Si     0.000000    0.000000    0.000000    ( 0.0000,  0.0000,  0.0000)
   1 Si     1.357500    1.357500    1.357500    ( 0.0000,  0.0000,  0.0000)
   2 Si     2.715000    2.715000    0.000000    ( 0.0000,  0.0000,  0.0000)
   3 Si     4.072500    4.072500    1.357500    ( 0.0000,  0.0000,  0.0000)
   4 Si     2.715000    0.000000    2.715000    ( 0.0000,  0.0000,  0.0000)
   5 Si     4.072500    1.357500    4.072500    ( 0.0000,  0.0000,  0.0000)
   6 Si     5.430000    2.715000    2.715000    ( 0.0000,  0.0000,  0.0000)
   7 Si     6.787500    4.072500    4.072500    ( 0.0000,  0.0000,  0.0000)
   8 Si     5.430000    0.000000    5.430000    ( 0.0000,  0.0000,  0.0000)
   9 Si     6.787500    1.357500    6.787500    ( 0.0000,  0.0000,  0.0000)
  10 Si     8.145000    2.715000    5.430000    ( 0.0000,  0.0000,  0.0000)
  11 Si     9.502500    4.072500    6.787500    ( 0.0000,  0.0000,  0.0000)
  12 Si     0.000000    2.715000    2.715000    ( 0.0000,  0.0000,  0.0000)
  13 Si     1.357500    4.072500    4.072500    ( 0.0000,  0.0000,  0.0000)
  14 Si     2.715000    5.430000    2.715000    ( 0.0000,  0.0000,  0.0000)
  15 Si     4.072500    6.787500    4.072500    ( 0.0000,  0.0000,  0.0000)
  16 Si     2.715000    2.715000    5.430000    ( 0.0000,  0.0000,  0.0000)
  17 Si     4.072500    4.072500    6.787500    ( 0.0000,  0.0000,  0.0000)
  18 Si     5.430000    5.430000    5.430000    ( 0.0000,  0.0000,  0.0000)
  19 Si     6.787500    6.787500    6.787500    ( 0.0000,  0.0000,  0.0000)
  20 Si     5.430000    2.715000    8.145000    ( 0.0000,  0.0000,  0.0000)
  21 Si     6.787500    4.072500    9.502500    ( 0.0000,  0.0000,  0.0000)
  22 Si     8.145000    5.430000    8.145000    ( 0.0000,  0.0000,  0.0000)
  23 Si     9.502500    6.787500    9.502500    ( 0.0000,  0.0000,  0.0000)
  24 Si     0.000000    5.430000    5.430000    ( 0.0000,  0.0000,  0.0000)
  25 Si     1.357500    6.787500    6.787500    ( 0.0000,  0.0000,  0.0000)
  26 Si     2.715000    8.145000    5.430000    ( 0.0000,  0.0000,  0.0000)
  27 Si     4.072500    9.502500    6.787500    ( 0.0000,  0.0000,  0.0000)
  28 Si     2.715000    5.430000    8.145000    ( 0.0000,  0.0000,  0.0000)
  29 Si     4.072500    6.787500    9.502500    ( 0.0000,  0.0000,  0.0000)
  30 Si     5.430000    8.145000    8.145000    ( 0.0000,  0.0000,  0.0000)
  31 Si     6.787500    9.502500    9.502500    ( 0.0000,  0.0000,  0.0000)
  32 Si     5.430000    5.430000   10.860000    ( 0.0000,  0.0000,  0.0000)
  33 Si     6.787500    6.787500   12.217500    ( 0.0000,  0.0000,  0.0000)
  34 Si     8.145000    8.145000   10.860000    ( 0.0000,  0.0000,  0.0000)
  35 Si     9.502500    9.502500   12.217500    ( 0.0000,  0.0000,  0.0000)

Unit cell:
           periodic     x           y           z      points  spacing
  1. axis:    yes    0.000000    8.145000    8.145000    40     0.2351
  2. axis:    yes    8.145000    0.000000    8.145000    40     0.2351
  3. axis:    yes    5.430000    5.430000    0.000000    27     0.2322

  Lengths:  11.518769  11.518769   7.679180
  Angles:   60.000000  60.000000  60.000000

Effective grid spacing dv^(1/3) = 0.2555

                     log10-error:    total        iterations:
           time      wfs    density  energy       fermi  poisson
iter:   1  06:16:57  +0.31   +inf  -216.697693    2             
iter:   2  06:18:27  -1.83  -0.80  -216.631768    2             
iter:   3  06:19:58  -1.29  -0.81  -216.247024    30            
iter:   4  06:21:28  -2.84  -1.03  -215.671215    3             
iter:   5  06:22:59  -4.15  -1.08  -215.568677    3             
iter:   6  06:24:30  -2.05  -1.10  -213.746892    5             
iter:   7  06:26:00  -3.55  -3.04  -213.754395    2             
iter:   8  06:27:31  -4.73  -2.87  -213.755181    2             
iter:   9  06:29:01  -4.92  -2.79  -213.755070    2             
iter:  10  06:30:32  -6.25  -3.15  -213.754954    2             
iter:  11  06:32:02  -7.27  -3.29  -213.754935    2             
iter:  12  06:33:33  -6.49  -3.32  -213.754810    2             
iter:  13  06:35:04  -7.82  -4.10  -213.754818    2             

Converged after 13 iterations.

Dipole moment: (-52.668750, -52.668750, -52.668217) |e|*Ang

Energy contributions relative to reference atoms: (reference = -282913.674588)

Kinetic:       +281.517319
Potential:     -247.669954
External:        +0.000000
XC:            -246.733843
Entropy (-ST):   -0.018578
Local:           -0.859052
--------------------------
Free energy:   -213.764107
Extrapolated:  -213.754818

Fermi level: 5.37210

Showing only first 2 kpts
 Kpt  Band  Eigenvalues  Occupancy
  0    70      4.72693    0.00116
  0    71      4.84132    0.00115
  0    72      6.50770    0.00000
  0    73      6.63270    0.00000

  1    70      4.63978    0.00116
  1    71      4.82083    0.00115
  1    72      6.26259    0.00000
  1    73      6.90224    0.00000


Gap: 0.489 eV
Transition (v -> c):
  (s=0, k=785, n=71, [-0.04, -0.04, -0.04]) -> (s=0, k=355, n=72, [-0.29, -0.04, 0.12])
---- Iteration: 1 ---- k=4 ----
Energy: -11.8724 eV ---- Time: 1.66 s
---- Iteration: 2 ---- k=8 ----
Energy: -11.8753 eV ---- Time: 1.67 s
---- Iteration: 3 ---- k=12 ----
Energy: -11.8753 eV ---- Time: 2.51 s
Written to DB
16
Phononic structure calculation started
---- Iteration: 1 ---- k=4 ----
Energy: -11.8724 eV ---- Time: 1.66 s
---- Iteration: 2 ---- k=8 ----
Energy: -11.8753 eV ---- Time: 1.67 s
---- Iteration: 3 ---- k=12 ----
Energy: -11.8753 eV ---- Time: 2.51 s
Written to DB
16
Phononic structure calculation started
---- Iteration: 1 ---- k=4 ----
Energy: -11.8724 eV ---- Time: 1.66 s
---- Iteration: 2 ---- k=8 ----
Energy: -11.8753 eV ---- Time: 1.67 s
---- Iteration: 3 ---- k=12 ----
Energy: -11.8753 eV ---- Time: 2.51 s
Written to DB
16
Phononic structure calculation started
---- Iteration: 1 ---- k=4 ----
Energy: -11.8724 eV ---- Time: 1.66 s
---- Iteration: 2 ---- k=8 ----
Energy: -11.8753 eV ---- Time: 1.67 s
---- Iteration: 3 ---- k=12 ----
Energy: -11.8753 eV ---- Time: 2.51 s
Written to DB
16
Phononic structure calculation started

Forces in eV/Ang:
  0 Si   -0.00012   -0.00012    0.00087
  1 Si    0.00075    0.00075    0.00120
  2 Si    0.00008    0.00008    0.00197
  3 Si   -0.00071   -0.00071    0.00106
  4 Si   -0.00018    0.00145    0.00060
  5 Si   -0.00027    0.00053    0.00020
  6 Si   -0.00148    0.00010    0.00069
  7 Si   -0.00046    0.00031    0.00114
  8 Si   -0.00118    0.00139    0.00005
  9 Si   -0.00139    0.00127   -0.00053
 10 Si   -0.00147    0.00114    0.00026
 11 Si   -0.00115    0.00138    0.00007
 12 Si    0.00145   -0.00018    0.00060
 13 Si    0.00053   -0.00027    0.00020
 14 Si    0.00010   -0.00148    0.00069
 15 Si    0.00031   -0.00046    0.00114
 16 Si    0.00013    0.00013   -0.00035
 17 Si   -0.00006   -0.00006   -0.00009
 18 Si   -0.00017   -0.00017   -0.00011
 19 Si    0.00010    0.00010    0.00053
 20 Si   -0.00056    0.00026   -0.00123
 21 Si   -0.00010    0.00152   -0.00052
 22 Si   -0.00034    0.00053   -0.00013
 23 Si   -0.00148    0.00018   -0.00065
 24 Si    0.00139   -0.00118    0.00005
 25 Si    0.00127   -0.00139   -0.00053
 26 Si    0.00114   -0.00147    0.00026
 27 Si    0.00138   -0.00115    0.00007
 28 Si    0.00026   -0.00056   -0.00123
 29 Si    0.00152   -0.00010   -0.00052
 30 Si    0.00053   -0.00034   -0.00013
 31 Si    0.00018   -0.00148   -0.00065
 32 Si    0.00066    0.00066   -0.00107
 33 Si    0.00009    0.00009   -0.00189
 34 Si   -0.00070   -0.00070   -0.00107
 35 Si   -0.00005   -0.00005   -0.00096

Writing ./phonons/ph_Si.eq.pckl
---- Iteration: 1 ---- k=4 ----
Energy: -11.8724 eV ---- Time: 1.66 s
---- Iteration: 2 ---- k=8 ----
Energy: -11.8753 eV ---- Time: 1.67 s
---- Iteration: 3 ---- k=12 ----
Energy: -11.8753 eV ---- Time: 2.51 s
Written to DB
16
Phononic structure calculation started
---- Iteration: 1 ---- k=4 ----
Energy: -11.8724 eV ---- Time: 1.66 s
---- Iteration: 2 ---- k=8 ----
Energy: -11.8753 eV ---- Time: 1.67 s
---- Iteration: 3 ---- k=12 ----
Energy: -11.8753 eV ---- Time: 2.51 s
Written to DB
16
Phononic structure calculation started
---- Iteration: 1 ---- k=4 ----
Energy: -11.8724 eV ---- Time: 1.66 s
---- Iteration: 2 ---- k=8 ----
Energy: -11.8753 eV ---- Time: 1.67 s
---- Iteration: 3 ---- k=12 ----
Energy: -11.8753 eV ---- Time: 2.51 s
Written to DB
16
Phononic structure calculation started
---- Iteration: 1 ---- k=4 ----
Energy: -11.8724 eV ---- Time: 1.66 s
---- Iteration: 2 ---- k=8 ----
Energy: -11.8753 eV ---- Time: 1.67 s
---- Iteration: 3 ---- k=12 ----
Energy: -11.8753 eV ---- Time: 2.51 s
Written to DB
16
Phononic structure calculation started
---- Iteration: 1 ---- k=4 ----
Energy: -11.8724 eV ---- Time: 1.66 s
---- Iteration: 2 ---- k=8 ----
Energy: -11.8753 eV ---- Time: 1.67 s
---- Iteration: 3 ---- k=12 ----
Energy: -11.8753 eV ---- Time: 2.51 s
Written to DB
16
Phononic structure calculation started
---- Iteration: 1 ---- k=4 ----
Energy: -11.8724 eV ---- Time: 1.66 s
---- Iteration: 2 ---- k=8 ----
Energy: -11.8753 eV ---- Time: 1.67 s
---- Iteration: 3 ---- k=12 ----
Energy: -11.8753 eV ---- Time: 2.51 s
Written to DB
16
Phononic structure calculation started
---- Iteration: 1 ---- k=4 ----
Energy: -11.8724 eV ---- Time: 1.66 s
---- Iteration: 2 ---- k=8 ----
Energy: -11.8753 eV ---- Time: 1.67 s
---- Iteration: 3 ---- k=12 ----
Energy: -11.8753 eV ---- Time: 2.51 s
Written to DB
16
Phononic structure calculation started
---- Iteration: 1 ---- k=4 ----
Energy: -11.8724 eV ---- Time: 1.66 s
---- Iteration: 2 ---- k=8 ----
Energy: -11.8753 eV ---- Time: 1.67 s
---- Iteration: 3 ---- k=12 ----
Energy: -11.8753 eV ---- Time: 2.51 s
Written to DB
16
Phononic structure calculation started
---- Iteration: 1 ---- k=4 ----
Energy: -11.8724 eV ---- Time: 1.66 s
---- Iteration: 2 ---- k=8 ----
Energy: -11.8753 eV ---- Time: 1.67 s
---- Iteration: 3 ---- k=12 ----
Energy: -11.8753 eV ---- Time: 2.51 s
Written to DB
16
Phononic structure calculation started
---- Iteration: 1 ---- k=4 ----
Energy: -11.8724 eV ---- Time: 1.66 s
---- Iteration: 2 ---- k=8 ----
Energy: -11.8753 eV ---- Time: 1.67 s
---- Iteration: 3 ---- k=12 ----
Energy: -11.8753 eV ---- Time: 2.51 s
Written to DB
16
Phononic structure calculation started
---- Iteration: 1 ---- k=4 ----
Energy: -11.8724 eV ---- Time: 1.66 s
---- Iteration: 2 ---- k=8 ----
Energy: -11.8753 eV ---- Time: 1.67 s
---- Iteration: 3 ---- k=12 ----
Energy: -11.8753 eV ---- Time: 2.51 s
Written to DB
16
Phononic structure calculation started
---- Iteration: 1 ---- k=4 ----
Energy: -11.8724 eV ---- Time: 1.66 s
---- Iteration: 2 ---- k=8 ----
Energy: -11.8753 eV ---- Time: 1.67 s
---- Iteration: 3 ---- k=12 ----
Energy: -11.8753 eV ---- Time: 2.51 s
Written to DB
16
Phononic structure calculation started
---- Iteration: 1 ---- k=4 ----
Energy: -11.8724 eV ---- Time: 1.66 s
---- Iteration: 2 ---- k=8 ----
Energy: -11.8753 eV ---- Time: 1.67 s
---- Iteration: 3 ---- k=12 ----
Energy: -11.8753 eV ---- Time: 2.51 s
Written to DB
16
Phononic structure calculation started
---- Iteration: 1 ---- k=4 ----
Energy: -11.8724 eV ---- Time: 1.66 s
---- Iteration: 2 ---- k=8 ----
Energy: -11.8753 eV ---- Time: 1.67 s
---- Iteration: 3 ---- k=12 ----
Energy: -11.8753 eV ---- Time: 2.51 s
Written to DB
16
Phononic structure calculation started
---- Iteration: 1 ---- k=4 ----
Energy: -11.8724 eV ---- Time: 1.66 s
---- Iteration: 2 ---- k=8 ----
Energy: -11.8753 eV ---- Time: 1.67 s
---- Iteration: 3 ---- k=12 ----
Energy: -11.8753 eV ---- Time: 2.51 s
Written to DB
16
Phononic structure calculation started
System changes: positions 

Initializing position-dependent things.

Density initialized from wave functions
                                             
                                             
                                             
                                             
                                    Si       
                            Si               
                                Si           
                             Si              
                        Si                   
                     Si  Si       Si         
                       Si Si                 
                 Si           Si             
               Si           Si               
                   Si Si                     
          Si        Si  Si       Si          
                     Si  Si                  
               Si            Si              
             Si           Si                 
                 Si Si                       
         Si       Si  Si                     
                    Si                       
              Si                             
           Si                                
               Si                            
       Si                                    
                                             
                                             
                                             
                                             

Positions:
   0 Si    -0.050000    0.000000    0.000000    ( 0.0000,  0.0000,  0.0000)
   1 Si     1.357500    1.357500    1.357500    ( 0.0000,  0.0000,  0.0000)
   2 Si     2.715000    2.715000    0.000000    ( 0.0000,  0.0000,  0.0000)
   3 Si     4.072500    4.072500    1.357500    ( 0.0000,  0.0000,  0.0000)
   4 Si     2.715000    0.000000    2.715000    ( 0.0000,  0.0000,  0.0000)
   5 Si     4.072500    1.357500    4.072500    ( 0.0000,  0.0000,  0.0000)
   6 Si     5.430000    2.715000    2.715000    ( 0.0000,  0.0000,  0.0000)
   7 Si     6.787500    4.072500    4.072500    ( 0.0000,  0.0000,  0.0000)
   8 Si     5.430000    0.000000    5.430000    ( 0.0000,  0.0000,  0.0000)
   9 Si     6.787500    1.357500    6.787500    ( 0.0000,  0.0000,  0.0000)
  10 Si     8.145000    2.715000    5.430000    ( 0.0000,  0.0000,  0.0000)
  11 Si     9.502500    4.072500    6.787500    ( 0.0000,  0.0000,  0.0000)
  12 Si     0.000000    2.715000    2.715000    ( 0.0000,  0.0000,  0.0000)
  13 Si     1.357500    4.072500    4.072500    ( 0.0000,  0.0000,  0.0000)
  14 Si     2.715000    5.430000    2.715000    ( 0.0000,  0.0000,  0.0000)
  15 Si     4.072500    6.787500    4.072500    ( 0.0000,  0.0000,  0.0000)
  16 Si     2.715000    2.715000    5.430000    ( 0.0000,  0.0000,  0.0000)
  17 Si     4.072500    4.072500    6.787500    ( 0.0000,  0.0000,  0.0000)
  18 Si     5.430000    5.430000    5.430000    ( 0.0000,  0.0000,  0.0000)
  19 Si     6.787500    6.787500    6.787500    ( 0.0000,  0.0000,  0.0000)
  20 Si     5.430000    2.715000    8.145000    ( 0.0000,  0.0000,  0.0000)
  21 Si     6.787500    4.072500    9.502500    ( 0.0000,  0.0000,  0.0000)
  22 Si     8.145000    5.430000    8.145000    ( 0.0000,  0.0000,  0.0000)
  23 Si     9.502500    6.787500    9.502500    ( 0.0000,  0.0000,  0.0000)
  24 Si     0.000000    5.430000    5.430000    ( 0.0000,  0.0000,  0.0000)
  25 Si     1.357500    6.787500    6.787500    ( 0.0000,  0.0000,  0.0000)
  26 Si     2.715000    8.145000    5.430000    ( 0.0000,  0.0000,  0.0000)
  27 Si     4.072500    9.502500    6.787500    ( 0.0000,  0.0000,  0.0000)
  28 Si     2.715000    5.430000    8.145000    ( 0.0000,  0.0000,  0.0000)
  29 Si     4.072500    6.787500    9.502500    ( 0.0000,  0.0000,  0.0000)
  30 Si     5.430000    8.145000    8.145000    ( 0.0000,  0.0000,  0.0000)
  31 Si     6.787500    9.502500    9.502500    ( 0.0000,  0.0000,  0.0000)
  32 Si     5.430000    5.430000   10.860000    ( 0.0000,  0.0000,  0.0000)
  33 Si     6.787500    6.787500   12.217500    ( 0.0000,  0.0000,  0.0000)
  34 Si     8.145000    8.145000   10.860000    ( 0.0000,  0.0000,  0.0000)
  35 Si     9.502500    9.502500   12.217500    ( 0.0000,  0.0000,  0.0000)

Unit cell:
           periodic     x           y           z      points  spacing
  1. axis:    yes    0.000000    8.145000    8.145000    40     0.2351
  2. axis:    yes    8.145000    0.000000    8.145000    40     0.2351
  3. axis:    yes    5.430000    5.430000    0.000000    27     0.2322

  Lengths:  11.518769  11.518769   7.679180
  Angles:   60.000000  60.000000  60.000000

Effective grid spacing dv^(1/3) = 0.2555

                     log10-error:    total        iterations:
           time      wfs    density  energy       fermi  poisson
iter:   1  06:37:14  -3.51   +inf  -213.748913    2             
iter:   2  06:38:40  -5.33  -2.73  -213.745882    1             
iter:   3  06:40:04  -3.76  -2.80  -213.740161    1             
iter:   4  06:41:29  -5.25  -2.90  -213.739108    1             
iter:   5  06:42:54  -4.48  -3.06  -213.739895    1             
iter:   6  06:44:19  -4.11  -3.02  -213.740283    1             
iter:   7  06:45:44  -4.85  -2.98  -213.738527    1             
iter:   8  06:47:09  -6.16  -3.52  -213.738497    1             
iter:   9  06:48:34  -6.02  -3.74  -213.738546    1             
iter:  10  06:49:59  -5.96  -3.63  -213.738478    1             
iter:  11  06:51:24  -7.25  -4.14  -213.738476    1             
iter:  12  06:52:49  -8.67  -4.24  -213.738475    1             

Converged after 12 iterations.

Dipole moment: (-50.685528, -53.065660, -52.669403) |e|*Ang

Energy contributions relative to reference atoms: (reference = -282913.674588)

Kinetic:       +281.945239
Potential:     -248.074182
External:        +0.000000
XC:            -246.768261
Entropy (-ST):   -0.018678
Local:           -0.831932
--------------------------
Free energy:   -213.747814
Extrapolated:  -213.738475

Fermi level: 5.37249

Showing only first 2 kpts
 Kpt  Band  Eigenvalues  Occupancy
  0    70      4.72838    0.00116
  0    71      4.84266    0.00115
  0    72      6.50760    0.00000
  0    73      6.63266    0.00000

  1    70      4.64103    0.00116
  1    71      4.82241    0.00115
  1    72      6.26265    0.00000
  1    73      6.90182    0.00000


Gap: 0.484 eV
Transition (v -> c):
  (s=0, k=942, n=71, [0.04, 0.04, 0.04]) -> (s=0, k=751, n=72, [-0.04, -0.29, 0.12])

Forces in eV/Ang:
  0 Si    0.66229   -0.00098   -0.00059
  1 Si   -0.16832   -0.10824   -0.10694
  2 Si   -0.01248   -0.01673    0.00111
  3 Si   -0.16802   -0.11903    0.12145
  4 Si   -0.00222   -0.00503   -0.00773
  5 Si   -0.01279    0.00183   -0.00590
  6 Si    0.02043    0.00241   -0.00779
  7 Si   -0.00505    0.00074    0.00503
  8 Si   -0.00299    0.00468   -0.01239
  9 Si   -0.16471    0.12152   -0.11708
 10 Si    0.02108   -0.00764    0.00394
 11 Si   -0.00133    0.00291    0.00319
 12 Si    0.02761    0.00431    0.00531
 13 Si   -0.01892    0.00250    0.00198
 14 Si   -0.01011   -0.00771    0.01034
 15 Si    0.00170    0.00011   -0.00112
 16 Si   -0.00470    0.00415   -0.00293
 17 Si   -0.00141    0.00511    0.00103
 18 Si   -0.00349    0.00225    0.00296
 19 Si    0.00141   -0.00211   -0.00091
 20 Si   -0.00766    0.00922   -0.00391
 21 Si    0.00320   -0.00322    0.00092
 22 Si   -0.00484   -0.00013    0.00048
 23 Si    0.00303   -0.00187   -0.00148
 24 Si    0.02775   -0.00534   -0.00269
 25 Si   -0.16067    0.10697    0.10378
 26 Si   -0.00941    0.00211    0.01094
 27 Si    0.00275    0.00283   -0.00427
 28 Si   -0.00727    0.00874    0.00274
 29 Si    0.00240   -0.00360    0.00162
 30 Si   -0.00482    0.00003    0.00006
 31 Si    0.00358   -0.00136   -0.00130
 32 Si   -0.00389    0.00468   -0.00215
 33 Si    0.00376   -0.00347    0.00125
 34 Si   -0.00351    0.00111    0.00226
 35 Si    0.00261   -0.00167   -0.00120

Writing ./phonons/ph_Si.0x-.pckl
System changes: positions 

Initializing position-dependent things.

Density initialized from wave functions
                                             
                                             
                                             
                                             
                                    Si       
                            Si               
                                Si           
                             Si              
                        Si                   
                     Si  Si       Si         
                       Si Si                 
                 Si           Si             
              Si            Si               
                   Si Si                     
          Si       Si   Si       Si          
                     Si Si                   
               Si            Si              
             Si           Si                 
                 Si Si                       
         Si       Si  Si                     
                   Si                        
              Si                             
           Si                                
               Si                            
       Si                                    
                                             
                                             
                                             
                                             

Positions:
   0 Si     0.050000    0.000000    0.000000    ( 0.0000,  0.0000,  0.0000)
   1 Si     1.357500    1.357500    1.357500    ( 0.0000,  0.0000,  0.0000)
   2 Si     2.715000    2.715000    0.000000    ( 0.0000,  0.0000,  0.0000)
   3 Si     4.072500    4.072500    1.357500    ( 0.0000,  0.0000,  0.0000)
   4 Si     2.715000    0.000000    2.715000    ( 0.0000,  0.0000,  0.0000)
   5 Si     4.072500    1.357500    4.072500    ( 0.0000,  0.0000,  0.0000)
   6 Si     5.430000    2.715000    2.715000    ( 0.0000,  0.0000,  0.0000)
   7 Si     6.787500    4.072500    4.072500    ( 0.0000,  0.0000,  0.0000)
   8 Si     5.430000    0.000000    5.430000    ( 0.0000,  0.0000,  0.0000)
   9 Si     6.787500    1.357500    6.787500    ( 0.0000,  0.0000,  0.0000)
  10 Si     8.145000    2.715000    5.430000    ( 0.0000,  0.0000,  0.0000)
  11 Si     9.502500    4.072500    6.787500    ( 0.0000,  0.0000,  0.0000)
  12 Si     0.000000    2.715000    2.715000    ( 0.0000,  0.0000,  0.0000)
  13 Si     1.357500    4.072500    4.072500    ( 0.0000,  0.0000,  0.0000)
  14 Si     2.715000    5.430000    2.715000    ( 0.0000,  0.0000,  0.0000)
  15 Si     4.072500    6.787500    4.072500    ( 0.0000,  0.0000,  0.0000)
  16 Si     2.715000    2.715000    5.430000    ( 0.0000,  0.0000,  0.0000)
  17 Si     4.072500    4.072500    6.787500    ( 0.0000,  0.0000,  0.0000)
  18 Si     5.430000    5.430000    5.430000    ( 0.0000,  0.0000,  0.0000)
  19 Si     6.787500    6.787500    6.787500    ( 0.0000,  0.0000,  0.0000)
  20 Si     5.430000    2.715000    8.145000    ( 0.0000,  0.0000,  0.0000)
  21 Si     6.787500    4.072500    9.502500    ( 0.0000,  0.0000,  0.0000)
  22 Si     8.145000    5.430000    8.145000    ( 0.0000,  0.0000,  0.0000)
  23 Si     9.502500    6.787500    9.502500    ( 0.0000,  0.0000,  0.0000)
  24 Si     0.000000    5.430000    5.430000    ( 0.0000,  0.0000,  0.0000)
  25 Si     1.357500    6.787500    6.787500    ( 0.0000,  0.0000,  0.0000)
  26 Si     2.715000    8.145000    5.430000    ( 0.0000,  0.0000,  0.0000)
  27 Si     4.072500    9.502500    6.787500    ( 0.0000,  0.0000,  0.0000)
  28 Si     2.715000    5.430000    8.145000    ( 0.0000,  0.0000,  0.0000)
  29 Si     4.072500    6.787500    9.502500    ( 0.0000,  0.0000,  0.0000)
  30 Si     5.430000    8.145000    8.145000    ( 0.0000,  0.0000,  0.0000)
  31 Si     6.787500    9.502500    9.502500    ( 0.0000,  0.0000,  0.0000)
  32 Si     5.430000    5.430000   10.860000    ( 0.0000,  0.0000,  0.0000)
  33 Si     6.787500    6.787500   12.217500    ( 0.0000,  0.0000,  0.0000)
  34 Si     8.145000    8.145000   10.860000    ( 0.0000,  0.0000,  0.0000)
  35 Si     9.502500    9.502500   12.217500    ( 0.0000,  0.0000,  0.0000)

Unit cell:
           periodic     x           y           z      points  spacing
  1. axis:    yes    0.000000    8.145000    8.145000    40     0.2351
  2. axis:    yes    8.145000    0.000000    8.145000    40     0.2351
  3. axis:    yes    5.430000    5.430000    0.000000    27     0.2322

  Lengths:  11.518769  11.518769   7.679180
  Angles:   60.000000  60.000000  60.000000

Effective grid spacing dv^(1/3) = 0.2555

                     log10-error:    total        iterations:
           time      wfs    density  energy       fermi  poisson
iter:   1  06:54:53  -2.92   +inf  -213.779647    1             
iter:   2  06:56:19  -4.74  -2.44  -213.767725    1             
iter:   3  06:57:44  -3.16  -2.50  -213.745144    1             
iter:   4  06:59:10  -4.67  -2.61  -213.740970    1             
iter:   5  07:00:35  -3.86  -2.76  -213.744353    2             
iter:   6  07:02:00  -3.57  -2.72  -213.743893    1             
iter:   7  07:03:25  -4.40  -2.74  -213.738727    1             
iter:   8  07:04:50  -5.58  -3.21  -213.738563    1             
iter:   9  07:06:15  -5.38  -3.44  -213.738693    1             
iter:  10  07:07:40  -5.51  -3.37  -213.738491    1             
iter:  11  07:09:06  -6.54  -3.83  -213.738482    1             
iter:  12  07:10:31  -7.98  -3.93  -213.738480    1             
iter:  13  07:11:56  -7.07  -4.00  -213.738478    1             
iter:  14  07:13:22  -7.88  -4.10  -213.738477    1             

Converged after 14 iterations.

Dipole moment: (-54.653307, -52.272144, -52.669353) |e|*Ang

Energy contributions relative to reference atoms: (reference = -282913.674588)

Kinetic:       +281.949176
Potential:     -248.077341
External:        +0.000000
XC:            -246.768641
Entropy (-ST):   -0.018678
Local:           -0.832332
--------------------------
Free energy:   -213.747816
Extrapolated:  -213.738477

Fermi level: 5.37248

Showing only first 2 kpts
 Kpt  Band  Eigenvalues  Occupancy
  0    70      4.72679    0.00116
  0    71      4.84138    0.00115
  0    72      6.50678    0.00000
  0    73      6.63197    0.00000

  1    70      4.64016    0.00116
  1    71      4.82078    0.00115
  1    72      6.26183    0.00000
  1    73      6.90127    0.00000


Gap: 0.482 eV
Transition (v -> c):
  (s=0, k=785, n=71, [-0.04, -0.04, -0.04]) -> (s=0, k=1372, n=72, [0.29, 0.04, -0.12])

Forces in eV/Ang:
  0 Si   -0.67246    0.00206    0.00064
  1 Si    0.18126    0.12500    0.12392
  2 Si    0.01076    0.01358   -0.00035
  3 Si    0.16514    0.10765   -0.11063
  4 Si    0.00172    0.00572    0.00711
  5 Si    0.01202   -0.00278    0.00419
  6 Si   -0.02112   -0.00194    0.00606
  7 Si    0.00684   -0.00043   -0.00600
  8 Si    0.00209   -0.00554    0.01024
  9 Si    0.16333   -0.11034    0.10670
 10 Si   -0.02078    0.00708   -0.00272
 11 Si   -0.00067   -0.00543   -0.00437
 12 Si   -0.02886   -0.00434   -0.00441
 13 Si    0.02059   -0.00342   -0.00112
 14 Si    0.00869    0.00760   -0.00854
 15 Si   -0.00108    0.00032    0.00284
 16 Si    0.00236   -0.00371    0.00174
 17 Si    0.00149   -0.00261   -0.00020
 18 Si    0.00329   -0.00025   -0.00170
 19 Si   -0.00356    0.00148    0.00028
 20 Si    0.00809   -0.00661    0.00460
 21 Si   -0.00347    0.00378   -0.00239
 22 Si    0.00317   -0.00103   -0.00016
 23 Si   -0.00427    0.00279    0.00303
 24 Si   -0.02890    0.00421    0.00168
 25 Si    0.17457   -0.12362   -0.12075
 26 Si    0.01027   -0.00283   -0.00959
 27 Si   -0.00432   -0.00526    0.00510
 28 Si    0.00849   -0.00705   -0.00381
 29 Si   -0.00394    0.00421   -0.00287
 30 Si    0.00331   -0.00112   -0.00101
 31 Si   -0.00375    0.00236    0.00225
 32 Si    0.00374   -0.00499    0.00219
 33 Si   -0.00402    0.00411   -0.00185
 34 Si    0.00398   -0.00102   -0.00213
 35 Si   -0.00346    0.00219    0.00192

Writing ./phonons/ph_Si.0x+.pckl
System changes: positions 

Initializing position-dependent things.

Density initialized from wave functions
                                             
                                             
                                             
                                             
                                    Si       
                            Si               
                                Si           
                             Si              
                        Si                   
                     Si  Si       Si         
                       Si Si                 
                 Si           Si             
              Si            Si               
                   Si Si                     
          Si       Si   Si       Si          
                     Si Si                   
               Si            Si              
             Si           Si                 
                 SSiSi                       
         Si           Si                     
                   Si                        
              Si                             
           Si                                
               Si                            
       Si                                    
                                             
                                             
                                             
                                             

Positions:
   0 Si     0.000000   -0.050000    0.000000    ( 0.0000,  0.0000,  0.0000)
   1 Si     1.357500    1.357500    1.357500    ( 0.0000,  0.0000,  0.0000)
   2 Si     2.715000    2.715000    0.000000    ( 0.0000,  0.0000,  0.0000)
   3 Si     4.072500    4.072500    1.357500    ( 0.0000,  0.0000,  0.0000)
   4 Si     2.715000    0.000000    2.715000    ( 0.0000,  0.0000,  0.0000)
   5 Si     4.072500    1.357500    4.072500    ( 0.0000,  0.0000,  0.0000)
   6 Si     5.430000    2.715000    2.715000    ( 0.0000,  0.0000,  0.0000)
   7 Si     6.787500    4.072500    4.072500    ( 0.0000,  0.0000,  0.0000)
   8 Si     5.430000    0.000000    5.430000    ( 0.0000,  0.0000,  0.0000)
   9 Si     6.787500    1.357500    6.787500    ( 0.0000,  0.0000,  0.0000)
  10 Si     8.145000    2.715000    5.430000    ( 0.0000,  0.0000,  0.0000)
  11 Si     9.502500    4.072500    6.787500    ( 0.0000,  0.0000,  0.0000)
  12 Si     0.000000    2.715000    2.715000    ( 0.0000,  0.0000,  0.0000)
  13 Si     1.357500    4.072500    4.072500    ( 0.0000,  0.0000,  0.0000)
  14 Si     2.715000    5.430000    2.715000    ( 0.0000,  0.0000,  0.0000)
  15 Si     4.072500    6.787500    4.072500    ( 0.0000,  0.0000,  0.0000)
  16 Si     2.715000    2.715000    5.430000    ( 0.0000,  0.0000,  0.0000)
  17 Si     4.072500    4.072500    6.787500    ( 0.0000,  0.0000,  0.0000)
  18 Si     5.430000    5.430000    5.430000    ( 0.0000,  0.0000,  0.0000)
  19 Si     6.787500    6.787500    6.787500    ( 0.0000,  0.0000,  0.0000)
  20 Si     5.430000    2.715000    8.145000    ( 0.0000,  0.0000,  0.0000)
  21 Si     6.787500    4.072500    9.502500    ( 0.0000,  0.0000,  0.0000)
  22 Si     8.145000    5.430000    8.145000    ( 0.0000,  0.0000,  0.0000)
  23 Si     9.502500    6.787500    9.502500    ( 0.0000,  0.0000,  0.0000)
  24 Si     0.000000    5.430000    5.430000    ( 0.0000,  0.0000,  0.0000)
  25 Si     1.357500    6.787500    6.787500    ( 0.0000,  0.0000,  0.0000)
  26 Si     2.715000    8.145000    5.430000    ( 0.0000,  0.0000,  0.0000)
  27 Si     4.072500    9.502500    6.787500    ( 0.0000,  0.0000,  0.0000)
  28 Si     2.715000    5.430000    8.145000    ( 0.0000,  0.0000,  0.0000)
  29 Si     4.072500    6.787500    9.502500    ( 0.0000,  0.0000,  0.0000)
  30 Si     5.430000    8.145000    8.145000    ( 0.0000,  0.0000,  0.0000)
  31 Si     6.787500    9.502500    9.502500    ( 0.0000,  0.0000,  0.0000)
  32 Si     5.430000    5.430000   10.860000    ( 0.0000,  0.0000,  0.0000)
  33 Si     6.787500    6.787500   12.217500    ( 0.0000,  0.0000,  0.0000)
  34 Si     8.145000    8.145000   10.860000    ( 0.0000,  0.0000,  0.0000)
  35 Si     9.502500    9.502500   12.217500    ( 0.0000,  0.0000,  0.0000)

Unit cell:
           periodic     x           y           z      points  spacing
  1. axis:    yes    0.000000    8.145000    8.145000    40     0.2351
  2. axis:    yes    8.145000    0.000000    8.145000    40     0.2351
  3. axis:    yes    5.430000    5.430000    0.000000    27     0.2322

  Lengths:  11.518769  11.518769   7.679180
  Angles:   60.000000  60.000000  60.000000

Effective grid spacing dv^(1/3) = 0.2555

                     log10-error:    total        iterations:
           time      wfs    density  energy       fermi  poisson
iter:   1  07:15:40  -3.23   +inf  -213.758128    1             
iter:   2  07:17:12  -5.06  -2.62  -213.752640    1             
iter:   3  07:18:45  -3.51  -2.69  -213.740954    1             
iter:   4  07:20:17  -5.42  -2.83  -213.739537    1             
iter:   5  07:21:50  -3.79  -2.94  -213.746857    1             
iter:   6  07:23:16  -3.95  -2.67  -213.738640    1             
iter:   7  07:24:41  -4.91  -3.33  -213.739070    1             
iter:   8  07:26:06  -5.44  -3.10  -213.738522    1             
iter:   9  07:27:32  -4.91  -3.56  -213.738953    1             
iter:  10  07:28:58  -5.25  -3.20  -213.738475    1             
iter:  11  07:30:23  -6.83  -4.19  -213.738477    1             
iter:  12  07:31:48  -7.48  -4.18  -213.738475    1             

Converged after 12 iterations.

Dipole moment: (-53.064903, -50.686949, -52.669874) |e|*Ang

Energy contributions relative to reference atoms: (reference = -282913.674588)

Kinetic:       +281.949442
Potential:     -248.078026
External:        +0.000000
XC:            -246.768720
Entropy (-ST):   -0.018678
Local:           -0.831833
--------------------------
Free energy:   -213.747814
Extrapolated:  -213.738475

Fermi level: 5.37249

Showing only first 2 kpts
 Kpt  Band  Eigenvalues  Occupancy
  0    70      4.72837    0.00116
  0    71      4.84267    0.00115
  0    72      6.50760    0.00000
  0    73      6.63266    0.00000

  1    70      4.64102    0.00116
  1    71      4.82241    0.00115
  1    72      6.26266    0.00000
  1    73      6.90184    0.00000


Gap: 0.484 eV
Transition (v -> c):
  (s=0, k=785, n=71, [-0.04, -0.04, -0.04]) -> (s=0, k=1372, n=72, [0.29, 0.04, -0.12])

Forces in eV/Ang:
  0 Si   -0.00079    0.65304   -0.00158
  1 Si   -0.10651   -0.16502   -0.10429
  2 Si   -0.01648   -0.01292    0.00134
  3 Si   -0.11826   -0.16589    0.11787
  4 Si    0.00602    0.02828    0.00507
  5 Si    0.00314   -0.01791    0.00036
  6 Si   -0.00559   -0.01225    0.01169
  7 Si   -0.00090    0.00026   -0.00214
  8 Si   -0.00267    0.02773   -0.00178
  9 Si    0.10135   -0.15962    0.09997
 10 Si    0.00254   -0.01154    0.01063
 11 Si    0.00424    0.00289   -0.00336
 12 Si   -0.00210   -0.00330   -0.01009
 13 Si    0.00303   -0.00974   -0.00380
 14 Si    0.00209    0.02116   -0.00622
 15 Si   -0.00193   -0.00744    0.00563
 16 Si    0.00481   -0.00183    0.00001
 17 Si   -0.00061   -0.00237   -0.00027
 18 Si   -0.00054   -0.00421    0.00082
 19 Si    0.00166    0.00443    0.00078
 20 Si    0.00781   -0.01136    0.00204
 21 Si   -0.00148    0.00240    0.00168
 22 Si    0.00146   -0.00170    0.00150
 23 Si   -0.00254    0.00303   -0.00287
 24 Si    0.00761   -0.00229   -0.01268
 25 Si    0.11602   -0.16343   -0.11638
 26 Si   -0.00817    0.01900    0.00322
 27 Si    0.00338   -0.00036    0.00436
 28 Si    0.00877   -0.01245   -0.00541
 29 Si   -0.00214    0.00440    0.00327
 30 Si    0.00171   -0.00197    0.00168
 31 Si   -0.00162    0.00088   -0.00183
 32 Si    0.00486   -0.00165   -0.00140
 33 Si   -0.00290    0.00502    0.00089
 34 Si   -0.00063   -0.00429    0.00151
 35 Si   -0.00324    0.00240   -0.00037

Writing ./phonons/ph_Si.0y-.pckl
System changes: positions 

Initializing position-dependent things.

Density initialized from wave functions
                                             
                                             
                                             
                                             
                                    Si       
                            Si               
                                Si           
                             Si              
                        Si                   
                     Si  Si       Si         
                       Si Si                 
                 Si           Si             
              Si            Si               
                   Si Si                     
          Si       Si   Si       Si          
                     Si Si                   
               Si            Si              
             Si           Si                 
                 Si Si                       
         Si       Si  Si                     
                   Si                        
              Si                             
           Si                                
               Si                            
       Si                                    
                                             
                                             
                                             
                                             

Positions:
   0 Si     0.000000    0.050000    0.000000    ( 0.0000,  0.0000,  0.0000)
   1 Si     1.357500    1.357500    1.357500    ( 0.0000,  0.0000,  0.0000)
   2 Si     2.715000    2.715000    0.000000    ( 0.0000,  0.0000,  0.0000)
   3 Si     4.072500    4.072500    1.357500    ( 0.0000,  0.0000,  0.0000)
   4 Si     2.715000    0.000000    2.715000    ( 0.0000,  0.0000,  0.0000)
   5 Si     4.072500    1.357500    4.072500    ( 0.0000,  0.0000,  0.0000)
   6 Si     5.430000    2.715000    2.715000    ( 0.0000,  0.0000,  0.0000)
   7 Si     6.787500    4.072500    4.072500    ( 0.0000,  0.0000,  0.0000)
   8 Si     5.430000    0.000000    5.430000    ( 0.0000,  0.0000,  0.0000)
   9 Si     6.787500    1.357500    6.787500    ( 0.0000,  0.0000,  0.0000)
  10 Si     8.145000    2.715000    5.430000    ( 0.0000,  0.0000,  0.0000)
  11 Si     9.502500    4.072500    6.787500    ( 0.0000,  0.0000,  0.0000)
  12 Si     0.000000    2.715000    2.715000    ( 0.0000,  0.0000,  0.0000)
  13 Si     1.357500    4.072500    4.072500    ( 0.0000,  0.0000,  0.0000)
  14 Si     2.715000    5.430000    2.715000    ( 0.0000,  0.0000,  0.0000)
  15 Si     4.072500    6.787500    4.072500    ( 0.0000,  0.0000,  0.0000)
  16 Si     2.715000    2.715000    5.430000    ( 0.0000,  0.0000,  0.0000)
  17 Si     4.072500    4.072500    6.787500    ( 0.0000,  0.0000,  0.0000)
  18 Si     5.430000    5.430000    5.430000    ( 0.0000,  0.0000,  0.0000)
  19 Si     6.787500    6.787500    6.787500    ( 0.0000,  0.0000,  0.0000)
  20 Si     5.430000    2.715000    8.145000    ( 0.0000,  0.0000,  0.0000)
  21 Si     6.787500    4.072500    9.502500    ( 0.0000,  0.0000,  0.0000)
  22 Si     8.145000    5.430000    8.145000    ( 0.0000,  0.0000,  0.0000)
  23 Si     9.502500    6.787500    9.502500    ( 0.0000,  0.0000,  0.0000)
  24 Si     0.000000    5.430000    5.430000    ( 0.0000,  0.0000,  0.0000)
  25 Si     1.357500    6.787500    6.787500    ( 0.0000,  0.0000,  0.0000)
  26 Si     2.715000    8.145000    5.430000    ( 0.0000,  0.0000,  0.0000)
  27 Si     4.072500    9.502500    6.787500    ( 0.0000,  0.0000,  0.0000)
  28 Si     2.715000    5.430000    8.145000    ( 0.0000,  0.0000,  0.0000)
  29 Si     4.072500    6.787500    9.502500    ( 0.0000,  0.0000,  0.0000)
  30 Si     5.430000    8.145000    8.145000    ( 0.0000,  0.0000,  0.0000)
  31 Si     6.787500    9.502500    9.502500    ( 0.0000,  0.0000,  0.0000)
  32 Si     5.430000    5.430000   10.860000    ( 0.0000,  0.0000,  0.0000)
  33 Si     6.787500    6.787500   12.217500    ( 0.0000,  0.0000,  0.0000)
  34 Si     8.145000    8.145000   10.860000    ( 0.0000,  0.0000,  0.0000)
  35 Si     9.502500    9.502500   12.217500    ( 0.0000,  0.0000,  0.0000)

Unit cell:
           periodic     x           y           z      points  spacing
  1. axis:    yes    0.000000    8.145000    8.145000    40     0.2351
  2. axis:    yes    8.145000    0.000000    8.145000    40     0.2351
  3. axis:    yes    5.430000    5.430000    0.000000    27     0.2322

  Lengths:  11.518769  11.518769   7.679180
  Angles:   60.000000  60.000000  60.000000

Effective grid spacing dv^(1/3) = 0.2555

                     log10-error:    total        iterations:
           time      wfs    density  energy       fermi  poisson
iter:   1  07:34:06  -2.91   +inf  -213.780360    1             
iter:   2  07:35:39  -4.74  -2.43  -213.768167    1             
iter:   3  07:37:12  -3.15  -2.50  -213.745410    1             
iter:   4  07:38:45  -4.67  -2.60  -213.741044    1             
iter:   5  07:40:18  -3.81  -2.76  -213.744996    2             
iter:   6  07:41:50  -3.58  -2.69  -213.743129    1             
iter:   7  07:43:22  -4.50  -2.77  -213.738784    1             
iter:   8  07:44:55  -5.55  -3.18  -213.738569    1             
iter:   9  07:46:27  -5.29  -3.43  -213.738673    1             
iter:  10  07:48:00  -5.60  -3.36  -213.738492    1             
iter:  11  07:49:33  -6.45  -3.82  -213.738482    1             
iter:  12  07:51:05  -7.89  -3.92  -213.738480    1             
iter:  13  07:52:37  -7.06  -3.99  -213.738478    1             
iter:  14  07:54:10  -7.84  -4.10  -213.738477    1             

Converged after 14 iterations.

Dipole moment: (-52.272069, -54.653361, -52.669352) |e|*Ang

Energy contributions relative to reference atoms: (reference = -282913.674588)

Kinetic:       +281.949222
Potential:     -248.077381
External:        +0.000000
XC:            -246.768643
Entropy (-ST):   -0.018678
Local:           -0.832336
--------------------------
Free energy:   -213.747816
Extrapolated:  -213.738477

Fermi level: 5.37248

Showing only first 2 kpts
 Kpt  Band  Eigenvalues  Occupancy
  0    70      4.72679    0.00116
  0    71      4.84138    0.00115
  0    72      6.50678    0.00000
  0    73      6.63197    0.00000

  1    70      4.64016    0.00116
  1    71      4.82078    0.00115
  1    72      6.26183    0.00000
  1    73      6.90127    0.00000


Gap: 0.482 eV
Transition (v -> c):
  (s=0, k=942, n=71, [0.04, 0.04, 0.04]) -> (s=0, k=976, n=72, [0.04, 0.29, -0.12])

Forces in eV/Ang:
  0 Si    0.00219   -0.67252    0.00064
  1 Si    0.12508    0.18135    0.12389
  2 Si    0.01350    0.01054   -0.00034
  3 Si    0.10771    0.16521   -0.11060
  4 Si   -0.00429   -0.02889   -0.00447
  5 Si   -0.00341    0.02059   -0.00126
  6 Si    0.00764    0.00861   -0.00854
  7 Si    0.00031   -0.00107    0.00272
  8 Si    0.00425   -0.02899    0.00161
  9 Si   -0.12360    0.17470   -0.12078
 10 Si   -0.00275    0.01017   -0.00958
 11 Si   -0.00526   -0.00441    0.00504
 12 Si    0.00577    0.00163    0.00709
 13 Si   -0.00276    0.01208    0.00435
 14 Si   -0.00187   -0.02113    0.00614
 15 Si   -0.00044    0.00679   -0.00591
 16 Si   -0.00380    0.00246    0.00176
 17 Si   -0.00278    0.00161   -0.00020
 18 Si   -0.00035    0.00340   -0.00173
 19 Si    0.00147   -0.00350    0.00028
 20 Si   -0.00701    0.00844   -0.00376
 21 Si    0.00420   -0.00395   -0.00289
 22 Si   -0.00116    0.00340   -0.00098
 23 Si    0.00231   -0.00371    0.00224
 24 Si   -0.00545    0.00198    0.01021
 25 Si   -0.11033    0.16344    0.10674
 26 Si    0.00710   -0.02085   -0.00263
 27 Si   -0.00544   -0.00076   -0.00432
 28 Si   -0.00655    0.00804    0.00456
 29 Si    0.00373   -0.00342   -0.00238
 30 Si   -0.00108    0.00327   -0.00019
 31 Si    0.00276   -0.00428    0.00304
 32 Si   -0.00503    0.00378    0.00221
 33 Si    0.00406   -0.00398   -0.00186
 34 Si   -0.00105    0.00401   -0.00215
 35 Si    0.00215   -0.00341    0.00192

Writing ./phonons/ph_Si.0y+.pckl
System changes: positions 

Initializing position-dependent things.

Density initialized from wave functions
                                             
                                             
                                             
                                             
                                    Si       
                            Si               
                                Si           
                             Si              
                        Si                   
                     Si  Si       Si         
                       Si Si                 
                 Si           Si             
              Si            Si               
                   Si Si                     
          Si       Si   Si       Si          
                     Si Si                   
               Si            Si              
             Si           Si                 
                 SSiSi                       
         Si           Si                     
                   Si                        
              Si                             
           Si                                
               Si                            
       Si                                    
                                             
                                             
                                             
                                             

Positions:
   0 Si     0.000000    0.000000   -0.050000    ( 0.0000,  0.0000,  0.0000)
   1 Si     1.357500    1.357500    1.357500    ( 0.0000,  0.0000,  0.0000)
   2 Si     2.715000    2.715000    0.000000    ( 0.0000,  0.0000,  0.0000)
   3 Si     4.072500    4.072500    1.357500    ( 0.0000,  0.0000,  0.0000)
   4 Si     2.715000    0.000000    2.715000    ( 0.0000,  0.0000,  0.0000)
   5 Si     4.072500    1.357500    4.072500    ( 0.0000,  0.0000,  0.0000)
   6 Si     5.430000    2.715000    2.715000    ( 0.0000,  0.0000,  0.0000)
   7 Si     6.787500    4.072500    4.072500    ( 0.0000,  0.0000,  0.0000)
   8 Si     5.430000    0.000000    5.430000    ( 0.0000,  0.0000,  0.0000)
   9 Si     6.787500    1.357500    6.787500    ( 0.0000,  0.0000,  0.0000)
  10 Si     8.145000    2.715000    5.430000    ( 0.0000,  0.0000,  0.0000)
  11 Si     9.502500    4.072500    6.787500    ( 0.0000,  0.0000,  0.0000)
  12 Si     0.000000    2.715000    2.715000    ( 0.0000,  0.0000,  0.0000)
  13 Si     1.357500    4.072500    4.072500    ( 0.0000,  0.0000,  0.0000)
  14 Si     2.715000    5.430000    2.715000    ( 0.0000,  0.0000,  0.0000)
  15 Si     4.072500    6.787500    4.072500    ( 0.0000,  0.0000,  0.0000)
  16 Si     2.715000    2.715000    5.430000    ( 0.0000,  0.0000,  0.0000)
  17 Si     4.072500    4.072500    6.787500    ( 0.0000,  0.0000,  0.0000)
  18 Si     5.430000    5.430000    5.430000    ( 0.0000,  0.0000,  0.0000)
  19 Si     6.787500    6.787500    6.787500    ( 0.0000,  0.0000,  0.0000)
  20 Si     5.430000    2.715000    8.145000    ( 0.0000,  0.0000,  0.0000)
  21 Si     6.787500    4.072500    9.502500    ( 0.0000,  0.0000,  0.0000)
  22 Si     8.145000    5.430000    8.145000    ( 0.0000,  0.0000,  0.0000)
  23 Si     9.502500    6.787500    9.502500    ( 0.0000,  0.0000,  0.0000)
  24 Si     0.000000    5.430000    5.430000    ( 0.0000,  0.0000,  0.0000)
  25 Si     1.357500    6.787500    6.787500    ( 0.0000,  0.0000,  0.0000)
  26 Si     2.715000    8.145000    5.430000    ( 0.0000,  0.0000,  0.0000)
  27 Si     4.072500    9.502500    6.787500    ( 0.0000,  0.0000,  0.0000)
  28 Si     2.715000    5.430000    8.145000    ( 0.0000,  0.0000,  0.0000)
  29 Si     4.072500    6.787500    9.502500    ( 0.0000,  0.0000,  0.0000)
  30 Si     5.430000    8.145000    8.145000    ( 0.0000,  0.0000,  0.0000)
  31 Si     6.787500    9.502500    9.502500    ( 0.0000,  0.0000,  0.0000)
  32 Si     5.430000    5.430000   10.860000    ( 0.0000,  0.0000,  0.0000)
  33 Si     6.787500    6.787500   12.217500    ( 0.0000,  0.0000,  0.0000)
  34 Si     8.145000    8.145000   10.860000    ( 0.0000,  0.0000,  0.0000)
  35 Si     9.502500    9.502500   12.217500    ( 0.0000,  0.0000,  0.0000)

Unit cell:
           periodic     x           y           z      points  spacing
  1. axis:    yes    0.000000    8.145000    8.145000    40     0.2351
  2. axis:    yes    8.145000    0.000000    8.145000    40     0.2351
  3. axis:    yes    5.430000    5.430000    0.000000    27     0.2322

  Lengths:  11.518769  11.518769   7.679180
  Angles:   60.000000  60.000000  60.000000

Effective grid spacing dv^(1/3) = 0.2555

                     log10-error:    total        iterations:
           time      wfs    density  energy       fermi  poisson
iter:   1  07:56:32  -3.21   +inf  -213.759432    1             
iter:   2  07:58:05  -5.03  -2.59  -213.753114    1             
iter:   3  07:59:39  -3.46  -2.66  -213.741845    1             
iter:   4  08:01:12  -4.87  -2.75  -213.739567    1             
iter:   5  08:02:45  -4.11  -2.92  -213.741595    1             
iter:   6  08:04:18  -4.01  -2.83  -213.739371    1             
iter:   7  08:05:52  -5.27  -3.06  -213.738567    1             
iter:   8  08:07:25  -5.86  -3.19  -213.738374    1             
iter:   9  08:08:58  -4.97  -3.39  -213.738413    1             
iter:  10  08:10:31  -5.71  -3.35  -213.738202    1             
iter:  11  08:12:04  -6.51  -3.97  -213.738201    1             
iter:  12  08:13:38  -7.60  -4.05  -213.738198    1             

Converged after 12 iterations.

Dipole moment: (-52.272708, -52.272889, -50.291896) |e|*Ang

Energy contributions relative to reference atoms: (reference = -282913.674588)

Kinetic:       +281.948591
Potential:     -248.077014
External:        +0.000000
XC:            -246.768613
Entropy (-ST):   -0.018693
Local:           -0.831815
--------------------------
Free energy:   -213.747545
Extrapolated:  -213.738198

Fermi level: 5.37253

Showing only first 2 kpts
 Kpt  Band  Eigenvalues  Occupancy
  0    70      4.71452    0.00116
  0    71      4.83164    0.00115
  0    72      6.49962    0.00000
  0    73      6.62579    0.00000

  1    70      4.62835    0.00116
  1    71      4.81087    0.00115
  1    72      6.25543    0.00000
  1    73      6.89330    0.00000


Gap: 0.495 eV
Transition (v -> c):
  (s=0, k=1086, n=71, [0.12, 0.04, 0.04]) -> (s=0, k=1372, n=72, [0.29, 0.04, -0.12])

Forces in eV/Ang:
  0 Si    0.00250    0.00648    0.66742
  1 Si   -0.10700   -0.10928   -0.17320
  2 Si    0.00114    0.00016    0.04563
  3 Si    0.10348    0.10067   -0.16734
  4 Si   -0.01136   -0.00017   -0.00937
  5 Si   -0.00525   -0.00054   -0.00552
  6 Si    0.00382    0.01008   -0.01143
  7 Si    0.00676   -0.00275   -0.00017
  8 Si   -0.00836    0.00504   -0.01150
  9 Si   -0.11137    0.11546   -0.16661
 10 Si   -0.00505    0.01057   -0.00967
 11 Si    0.00280   -0.00740    0.00295
 12 Si   -0.00165   -0.01038   -0.00570
 13 Si   -0.00058   -0.00875   -0.00637
 14 Si    0.00990    0.00451   -0.01027
 15 Si   -0.00044    0.00799   -0.00002
 16 Si   -0.00347   -0.00264   -0.00434
 17 Si    0.00271    0.00013   -0.01476
 18 Si    0.00240    0.00342   -0.00270
 19 Si   -0.00296    0.00036    0.00281
 20 Si    0.00191   -0.00070    0.02823
 21 Si    0.00086    0.00153    0.00460
 22 Si   -0.00138   -0.00079   -0.00243
 23 Si   -0.00194    0.00030    0.00494
 24 Si    0.00242   -0.00895   -0.00966
 25 Si    0.11959   -0.11563   -0.16675
 26 Si    0.01158   -0.00303   -0.00836
 27 Si   -0.00641    0.00174    0.00343
 28 Si   -0.00351    0.00508    0.02876
 29 Si    0.00080    0.00262    0.00286
 30 Si   -0.00056   -0.00185   -0.00324
 31 Si   -0.00162   -0.00113    0.00433
 32 Si   -0.00186   -0.00248   -0.00217
 33 Si    0.00025    0.00111    0.00091
 34 Si    0.00189    0.00230   -0.00569
 35 Si   -0.00065   -0.00047    0.00296

Writing ./phonons/ph_Si.0z-.pckl
System changes: positions 

Initializing position-dependent things.

Density initialized from wave functions
                                             
                                             
                                             
                                             
                                    Si       
                            Si               
                                Si           
                             Si              
                        Si                   
                     Si  Si       Si         
                       Si Si                 
                 Si           Si             
              Si            Si               
                   Si Si                     
          Si       Si   Si       Si          
                     Si Si                   
               Si            Si              
             Si           Si                 
                 Si Si                       
         Si       Si  Si                     
                   Si                        
              Si                             
           Si                                
               Si                            
       Si                                    
                                             
                                             
                                             
                                             

Positions:
   0 Si     0.000000    0.000000    0.050000    ( 0.0000,  0.0000,  0.0000)
   1 Si     1.357500    1.357500    1.357500    ( 0.0000,  0.0000,  0.0000)
   2 Si     2.715000    2.715000    0.000000    ( 0.0000,  0.0000,  0.0000)
   3 Si     4.072500    4.072500    1.357500    ( 0.0000,  0.0000,  0.0000)
   4 Si     2.715000    0.000000    2.715000    ( 0.0000,  0.0000,  0.0000)
   5 Si     4.072500    1.357500    4.072500    ( 0.0000,  0.0000,  0.0000)
   6 Si     5.430000    2.715000    2.715000    ( 0.0000,  0.0000,  0.0000)
   7 Si     6.787500    4.072500    4.072500    ( 0.0000,  0.0000,  0.0000)
   8 Si     5.430000    0.000000    5.430000    ( 0.0000,  0.0000,  0.0000)
   9 Si     6.787500    1.357500    6.787500    ( 0.0000,  0.0000,  0.0000)
  10 Si     8.145000    2.715000    5.430000    ( 0.0000,  0.0000,  0.0000)
  11 Si     9.502500    4.072500    6.787500    ( 0.0000,  0.0000,  0.0000)
  12 Si     0.000000    2.715000    2.715000    ( 0.0000,  0.0000,  0.0000)
  13 Si     1.357500    4.072500    4.072500    ( 0.0000,  0.0000,  0.0000)
  14 Si     2.715000    5.430000    2.715000    ( 0.0000,  0.0000,  0.0000)
  15 Si     4.072500    6.787500    4.072500    ( 0.0000,  0.0000,  0.0000)
  16 Si     2.715000    2.715000    5.430000    ( 0.0000,  0.0000,  0.0000)
  17 Si     4.072500    4.072500    6.787500    ( 0.0000,  0.0000,  0.0000)
  18 Si     5.430000    5.430000    5.430000    ( 0.0000,  0.0000,  0.0000)
  19 Si     6.787500    6.787500    6.787500    ( 0.0000,  0.0000,  0.0000)
  20 Si     5.430000    2.715000    8.145000    ( 0.0000,  0.0000,  0.0000)
  21 Si     6.787500    4.072500    9.502500    ( 0.0000,  0.0000,  0.0000)
  22 Si     8.145000    5.430000    8.145000    ( 0.0000,  0.0000,  0.0000)
  23 Si     9.502500    6.787500    9.502500    ( 0.0000,  0.0000,  0.0000)
  24 Si     0.000000    5.430000    5.430000    ( 0.0000,  0.0000,  0.0000)
  25 Si     1.357500    6.787500    6.787500    ( 0.0000,  0.0000,  0.0000)
  26 Si     2.715000    8.145000    5.430000    ( 0.0000,  0.0000,  0.0000)
  27 Si     4.072500    9.502500    6.787500    ( 0.0000,  0.0000,  0.0000)
  28 Si     2.715000    5.430000    8.145000    ( 0.0000,  0.0000,  0.0000)
  29 Si     4.072500    6.787500    9.502500    ( 0.0000,  0.0000,  0.0000)
  30 Si     5.430000    8.145000    8.145000    ( 0.0000,  0.0000,  0.0000)
  31 Si     6.787500    9.502500    9.502500    ( 0.0000,  0.0000,  0.0000)
  32 Si     5.430000    5.430000   10.860000    ( 0.0000,  0.0000,  0.0000)
  33 Si     6.787500    6.787500   12.217500    ( 0.0000,  0.0000,  0.0000)
  34 Si     8.145000    8.145000   10.860000    ( 0.0000,  0.0000,  0.0000)
  35 Si     9.502500    9.502500   12.217500    ( 0.0000,  0.0000,  0.0000)

Unit cell:
           periodic     x           y           z      points  spacing
  1. axis:    yes    0.000000    8.145000    8.145000    40     0.2351
  2. axis:    yes    8.145000    0.000000    8.145000    40     0.2351
  3. axis:    yes    5.430000    5.430000    0.000000    27     0.2322

  Lengths:  11.518769  11.518769   7.679180
  Angles:   60.000000  60.000000  60.000000

Effective grid spacing dv^(1/3) = 0.2555

                     log10-error:    total        iterations:
           time      wfs    density  energy       fermi  poisson
iter:   1  08:15:58  -2.91   +inf  -213.781806    1             
iter:   2  08:17:30  -4.73  -2.42  -213.768830    1             
iter:   3  08:19:02  -3.13  -2.49  -213.746239    1             
iter:   4  08:20:35  -4.46  -2.58  -213.741164    1             
iter:   5  08:22:07  -3.87  -2.75  -213.743679    2             
iter:   6  08:23:39  -3.66  -2.73  -213.741909    1             
iter:   7  08:25:12  -4.39  -2.82  -213.738462    1             
iter:   8  08:26:45  -5.62  -3.26  -213.738244    1             
iter:   9  08:28:17  -5.35  -3.51  -213.738350    1             
iter:  10  08:29:50  -5.75  -3.42  -213.738201    1             
iter:  11  08:31:22  -6.85  -3.86  -213.738195    1             
iter:  12  08:32:54  -7.92  -3.95  -213.738194    1             
iter:  13  08:34:27  -7.00  -4.00  -213.738192    1             
iter:  14  08:35:59  -7.93  -4.16  -213.738191    1             

Converged after 14 iterations.

Dipole moment: (-53.065817, -53.065813, -55.050674) |e|*Ang

Energy contributions relative to reference atoms: (reference = -282913.674588)

Kinetic:       +281.948785
Potential:     -248.076616
External:        +0.000000
XC:            -246.768652
Entropy (-ST):   -0.018692
Local:           -0.832363
--------------------------
Free energy:   -213.747537
Extrapolated:  -213.738191

Fermi level: 5.37250

Showing only first 2 kpts
 Kpt  Band  Eigenvalues  Occupancy
  0    70      4.73700    0.00116
  0    71      4.85552    0.00115
  0    72      6.51371    0.00000
  0    73      6.63993    0.00000

  1    70      4.65022    0.00116
  1    71      4.83401    0.00115
  1    72      6.26902    0.00000
  1    73      6.90771    0.00000


Gap: 0.474 eV
Transition (v -> c):
  (s=0, k=785, n=71, [-0.04, -0.04, -0.04]) -> (s=0, k=355, n=72, [-0.29, -0.04, 0.12])

Forces in eV/Ang:
  0 Si    0.00079    0.00089   -0.68101
  1 Si    0.12317    0.12315    0.18467
  2 Si   -0.00076   -0.00077   -0.04840
  3 Si   -0.12323   -0.12327    0.18329
  4 Si    0.01085    0.00250    0.00773
  5 Si    0.00439   -0.00168    0.00343
  6 Si   -0.00332   -0.01000    0.00858
  7 Si   -0.00580    0.00304   -0.00189
  8 Si    0.00809   -0.00486    0.00771
  9 Si    0.10567   -0.10689    0.16537
 10 Si    0.00638   -0.00960    0.00838
 11 Si   -0.00380    0.00499   -0.00330
 12 Si    0.00248    0.01087    0.00777
 13 Si   -0.00168    0.00434    0.00341
 14 Si   -0.01001   -0.00330    0.00860
 15 Si    0.00307   -0.00579   -0.00190
 16 Si    0.00155    0.00156    0.00193
 17 Si   -0.00012   -0.00016    0.01839
 18 Si   -0.00157   -0.00156    0.00313
 19 Si    0.00013    0.00017   -0.00318
 20 Si   -0.00196    0.00333   -0.02672
 21 Si   -0.00245   -0.00181   -0.00378
 22 Si   -0.00023   -0.00115    0.00466
 23 Si    0.00235    0.00192   -0.00305
 24 Si   -0.00490    0.00808    0.00774
 25 Si   -0.10682    0.10560    0.16534
 26 Si   -0.00958    0.00641    0.00839
 27 Si    0.00499   -0.00380   -0.00331
 28 Si    0.00329   -0.00192   -0.02672
 29 Si   -0.00182   -0.00244   -0.00380
 30 Si   -0.00113   -0.00025    0.00465
 31 Si    0.00191    0.00236   -0.00306
 32 Si    0.00182    0.00181    0.00245
 33 Si   -0.00218   -0.00217   -0.00311
 34 Si   -0.00183   -0.00182    0.00409
 35 Si    0.00221    0.00221   -0.00477

Writing ./phonons/ph_Si.0z+.pckl
System changes: positions 

Initializing position-dependent things.

Density initialized from wave functions
                                             
                                             
                                             
                                             
                                    Si       
                            Si               
                                Si           
                             Si              
                        Si                   
                     Si  Si       Si         
                       Si Si                 
                 Si           Si             
              Si            Si               
                   Si Si                     
          Si       Si   Si       Si          
                     Si Si                   
               Si            Si              
             Si           Si                 
                 Si Si                       
         Si       Si  Si                     
                   Si                        
              Si                             
           Si                                
               Si                            
       Si                                    
                                             
                                             
                                             
                                             

Positions:
   0 Si     0.000000    0.000000    0.000000    ( 0.0000,  0.0000,  0.0000)
   1 Si     1.307500    1.357500    1.357500    ( 0.0000,  0.0000,  0.0000)
   2 Si     2.715000    2.715000    0.000000    ( 0.0000,  0.0000,  0.0000)
   3 Si     4.072500    4.072500    1.357500    ( 0.0000,  0.0000,  0.0000)
   4 Si     2.715000    0.000000    2.715000    ( 0.0000,  0.0000,  0.0000)
   5 Si     4.072500    1.357500    4.072500    ( 0.0000,  0.0000,  0.0000)
   6 Si     5.430000    2.715000    2.715000    ( 0.0000,  0.0000,  0.0000)
   7 Si     6.787500    4.072500    4.072500    ( 0.0000,  0.0000,  0.0000)
   8 Si     5.430000    0.000000    5.430000    ( 0.0000,  0.0000,  0.0000)
   9 Si     6.787500    1.357500    6.787500    ( 0.0000,  0.0000,  0.0000)
  10 Si     8.145000    2.715000    5.430000    ( 0.0000,  0.0000,  0.0000)
  11 Si     9.502500    4.072500    6.787500    ( 0.0000,  0.0000,  0.0000)
  12 Si     0.000000    2.715000    2.715000    ( 0.0000,  0.0000,  0.0000)
  13 Si     1.357500    4.072500    4.072500    ( 0.0000,  0.0000,  0.0000)
  14 Si     2.715000    5.430000    2.715000    ( 0.0000,  0.0000,  0.0000)
  15 Si     4.072500    6.787500    4.072500    ( 0.0000,  0.0000,  0.0000)
  16 Si     2.715000    2.715000    5.430000    ( 0.0000,  0.0000,  0.0000)
  17 Si     4.072500    4.072500    6.787500    ( 0.0000,  0.0000,  0.0000)
  18 Si     5.430000    5.430000    5.430000    ( 0.0000,  0.0000,  0.0000)
  19 Si     6.787500    6.787500    6.787500    ( 0.0000,  0.0000,  0.0000)
  20 Si     5.430000    2.715000    8.145000    ( 0.0000,  0.0000,  0.0000)
  21 Si     6.787500    4.072500    9.502500    ( 0.0000,  0.0000,  0.0000)
  22 Si     8.145000    5.430000    8.145000    ( 0.0000,  0.0000,  0.0000)
  23 Si     9.502500    6.787500    9.502500    ( 0.0000,  0.0000,  0.0000)
  24 Si     0.000000    5.430000    5.430000    ( 0.0000,  0.0000,  0.0000)
  25 Si     1.357500    6.787500    6.787500    ( 0.0000,  0.0000,  0.0000)
  26 Si     2.715000    8.145000    5.430000    ( 0.0000,  0.0000,  0.0000)
  27 Si     4.072500    9.502500    6.787500    ( 0.0000,  0.0000,  0.0000)
  28 Si     2.715000    5.430000    8.145000    ( 0.0000,  0.0000,  0.0000)
  29 Si     4.072500    6.787500    9.502500    ( 0.0000,  0.0000,  0.0000)
  30 Si     5.430000    8.145000    8.145000    ( 0.0000,  0.0000,  0.0000)
  31 Si     6.787500    9.502500    9.502500    ( 0.0000,  0.0000,  0.0000)
  32 Si     5.430000    5.430000   10.860000    ( 0.0000,  0.0000,  0.0000)
  33 Si     6.787500    6.787500   12.217500    ( 0.0000,  0.0000,  0.0000)
  34 Si     8.145000    8.145000   10.860000    ( 0.0000,  0.0000,  0.0000)
  35 Si     9.502500    9.502500   12.217500    ( 0.0000,  0.0000,  0.0000)

Unit cell:
           periodic     x           y           z      points  spacing
  1. axis:    yes    0.000000    8.145000    8.145000    40     0.2351
  2. axis:    yes    8.145000    0.000000    8.145000    40     0.2351
  3. axis:    yes    5.430000    5.430000    0.000000    27     0.2322

  Lengths:  11.518769  11.518769   7.679180
  Angles:   60.000000  60.000000  60.000000

Effective grid spacing dv^(1/3) = 0.2555

                     log10-error:    total        iterations:
           time      wfs    density  energy       fermi  poisson
iter:   1  08:38:16  -3.18   +inf  -213.757066    1             
iter:   2  08:39:49  -5.01  -2.55  -213.751517    1             
iter:   3  08:41:22  -3.49  -2.62  -213.741947    1             
iter:   4  08:42:55  -4.85  -2.74  -213.739684    1             
iter:   5  08:44:29  -4.15  -2.90  -213.741560    1             
iter:   6  08:46:01  -3.99  -2.84  -213.739922    1             
iter:   7  08:47:34  -5.12  -3.00  -213.738744    1             
iter:   8  08:49:07  -5.71  -3.25  -213.738535    1             
iter:   9  08:50:40  -5.35  -3.53  -213.738582    1             
iter:  10  08:52:13  -6.02  -3.49  -213.738480    1             
iter:  11  08:53:46  -6.70  -3.99  -213.738478    1             
iter:  12  08:55:19  -8.07  -4.08  -213.738477    1             

Converged after 12 iterations.

Dipole moment: (-53.228411, -52.566762, -52.678108) |e|*Ang

Energy contributions relative to reference atoms: (reference = -282913.674588)

Kinetic:       +281.949478
Potential:     -248.078053
External:        +0.000000
XC:            -246.768676
Entropy (-ST):   -0.018677
Local:           -0.831887
--------------------------
Free energy:   -213.747816
Extrapolated:  -213.738477

Fermi level: 5.37248

Showing only first 2 kpts
 Kpt  Band  Eigenvalues  Occupancy
  0    70      4.72673    0.00116
  0    71      4.84131    0.00115
  0    72      6.50673    0.00000
  0    73      6.63192    0.00000

  1    70      4.64010    0.00116
  1    71      4.82071    0.00115
  1    72      6.26178    0.00000
  1    73      6.90121    0.00000


Gap: 0.482 eV
Transition (v -> c):
  (s=0, k=785, n=71, [-0.04, -0.04, -0.04]) -> (s=0, k=1372, n=72, [0.29, 0.04, -0.12])

Forces in eV/Ang:
  0 Si   -0.17609   -0.12227   -0.11222
  1 Si    0.66007   -0.00247   -0.00488
  2 Si   -0.16033   -0.10350    0.11048
  3 Si   -0.01202   -0.01514   -0.00386
  4 Si   -0.15482    0.10721   -0.09976
  5 Si   -0.00644    0.00470   -0.01544
  6 Si   -0.00267    0.00201    0.00325
  7 Si    0.02201   -0.00539    0.00382
  8 Si   -0.01163    0.00038   -0.00374
  9 Si   -0.00496   -0.00401   -0.01102
 10 Si   -0.00371    0.00062    0.00621
 11 Si    0.02062    0.00215   -0.00713
 12 Si   -0.16831    0.12373    0.11984
 13 Si    0.02795   -0.00756   -0.00672
 14 Si    0.00062    0.00220   -0.00485
 15 Si   -0.00965    0.00420    0.01113
 16 Si    0.00348   -0.00479   -0.00093
 17 Si   -0.00331    0.00466   -0.00106
 18 Si    0.00400   -0.00145   -0.00222
 19 Si   -0.00338    0.00042    0.00256
 20 Si    0.00128   -0.00296    0.00494
 21 Si   -0.00911    0.00962    0.00482
 22 Si    0.00415   -0.00142   -0.00089
 23 Si   -0.00473    0.00082    0.00059
 24 Si   -0.02080    0.00393    0.00220
 25 Si    0.02935    0.00332    0.00135
 26 Si    0.00067    0.00106   -0.00080
 27 Si   -0.01059   -0.00683    0.00939
 28 Si    0.00430   -0.00411    0.00466
 29 Si   -0.00697    0.00776   -0.00250
 30 Si    0.00300   -0.00212   -0.00081
 31 Si   -0.00332   -0.00081    0.00023
 32 Si   -0.00174    0.00353    0.00036
 33 Si   -0.00468    0.00223   -0.00196
 34 Si    0.00314   -0.00200   -0.00366
 35 Si   -0.00162    0.00233    0.00233

Writing ./phonons/ph_Si.1x-.pckl
System changes: positions 

Initializing position-dependent things.

Density initialized from wave functions
                                             
                                             
                                             
                                             
                                    Si       
                            Si               
                                Si           
                             Si              
                        Si                   
                     Si  Si       Si         
                       Si Si                 
                 Si           Si             
              Si            Si               
                   Si Si                     
          Si       Si   Si       Si          
                     Si Si                   
               Si            Si              
             Si           Si                 
                 Si Si                       
         Si       Si  Si                     
                   Si                        
              Si                             
           Si                                
               Si                            
       Si                                    
                                             
                                             
                                             
                                             

Positions:
   0 Si     0.000000    0.000000    0.000000    ( 0.0000,  0.0000,  0.0000)
   1 Si     1.407500    1.357500    1.357500    ( 0.0000,  0.0000,  0.0000)
   2 Si     2.715000    2.715000    0.000000    ( 0.0000,  0.0000,  0.0000)
   3 Si     4.072500    4.072500    1.357500    ( 0.0000,  0.0000,  0.0000)
   4 Si     2.715000    0.000000    2.715000    ( 0.0000,  0.0000,  0.0000)
[...]
WARNING, 1 imaginary frequencies at q = ( 0.47, -0.47, -0.12) ; (omega_q = 1.832e-02*i)
WARNING, 1 imaginary frequencies at q = ( 0.47, -0.47, -0.08) ; (omega_q = 5.296e-02*i)
WARNING, 1 imaginary frequencies at q = ( 0.47, -0.47, -0.03) ; (omega_q = 6.358e-02*i)
WARNING, 1 imaginary frequencies at q = ( 0.47, -0.47,  0.03) ; (omega_q = 6.281e-02*i)
WARNING, 1 imaginary frequencies at q = ( 0.47, -0.47,  0.07) ; (omega_q = 5.024e-02*i)
WARNING, 1 imaginary frequencies at q = ( 0.47,  0.47, -0.12) ; (omega_q = 4.767e-02*i)
WARNING, 1 imaginary frequencies at q = ( 0.47,  0.47, -0.08) ; (omega_q = 7.519e-02*i)
WARNING, 1 imaginary frequencies at q = ( 0.47,  0.47, -0.03) ; (omega_q = 8.894e-02*i)
WARNING, 1 imaginary frequencies at q = ( 0.47,  0.47,  0.03) ; (omega_q = 9.397e-02*i)
WARNING, 1 imaginary frequencies at q = ( 0.47,  0.47,  0.07) ; (omega_q = 9.118e-02*i)
WARNING, 1 imaginary frequencies at q = ( 0.47,  0.47,  0.12) ; (omega_q = 7.992e-02*i)
WARNING, 1 imaginary frequencies at q = ( 0.47,  0.47,  0.18) ; (omega_q = 5.665e-02*i)

WARNING, 1 imaginary frequencies at q = ( 0.07,  0.03, -0.08) ; (omega_q = 1.981e-02*i)
WARNING, 1 imaginary frequencies at q = ( 0.07,  0.03,  0.03) ; (omega_q = 3.703e-02*i)
WARNING, 1 imaginary frequencies at q = ( 0.07,  0.03,  0.07) ; (omega_q = 6.936e-02*i)
WARNING, 1 imaginary frequencies at q = ( 0.07,  0.03,  0.12) ; (omega_q = 6.107e-02*i)
WARNING, 1 imaginary frequencies at q = ( 0.07,  0.03,  0.18) ; (omega_q = 3.097e-03*i)
WARNING, 1 imaginary frequencies at q = ( 0.12, -0.03, -0.08) ; (omega_q = 1.509e-02*i)
WARNING, 1 imaginary frequencies at q = ( 0.12, -0.03,  0.07) ; (omega_q = 3.928e-02*i)
WARNING, 1 imaginary frequencies at q = ( 0.12,  0.03,  0.07) ; (omega_q = 2.723e-02*i)
WARNING, 1 imaginary frequencies at q = ( 0.47, -0.47, -0.12) ; (omega_q = 1.832e-02*i)
WARNING, 1 imaginary frequencies at q = ( 0.47, -0.47, -0.08) ; (omega_q = 5.296e-02*i)
WARNING, 1 imaginary frequencies at q = ( 0.47, -0.47, -0.03) ; (omega_q = 6.358e-02*i)
WARNING, 1 imaginary frequencies at q = ( 0.47, -0.47,  0.03) ; (omega_q = 6.281e-02*i)
WARNING, 1 imaginary frequencies at q = ( 0.47, -0.47,  0.07) ; (omega_q = 5.024e-02*i)
WARNING, 1 imaginary frequencies at q = ( 0.47,  0.47, -0.12) ; (omega_q = 4.767e-02*i)
WARNING, 1 imaginary frequencies at q = ( 0.47,  0.47, -0.08) ; (omega_q = 7.519e-02*i)
WARNING, 1 imaginary frequencies at q = ( 0.47,  0.47, -0.03) ; (omega_q = 8.894e-02*i)
WARNING, 1 imaginary frequencies at q = ( 0.47,  0.47,  0.03) ; (omega_q = 9.397e-02*i)
WARNING, 1 imaginary frequencies at q = ( 0.47,  0.47,  0.07) ; (omega_q = 9.118e-02*i)
WARNING, 1 imaginary frequencies at q = ( 0.47,  0.47,  0.12) ; (omega_q = 7.992e-02*i)
WARNING, 1 imaginary frequencies at q = ( 0.47,  0.47,  0.18) ; (omega_q = 5.665e-02*i)

WARNING, 1 imaginary frequencies at q = ( 0.07,  0.03, -0.08) ; (omega_q = 1.981e-02*i)
WARNING, 1 imaginary frequencies at q = ( 0.07,  0.03,  0.03) ; (omega_q = 3.703e-02*i)
WARNING, 1 imaginary frequencies at q = ( 0.07,  0.03,  0.07) ; (omega_q = 6.936e-02*i)
WARNING, 1 imaginary frequencies at q = ( 0.07,  0.03,  0.12) ; (omega_q = 6.107e-02*i)
WARNING, 1 imaginary frequencies at q = ( 0.07,  0.03,  0.18) ; (omega_q = 3.097e-03*i)
WARNING, 1 imaginary frequencies at q = ( 0.12, -0.03, -0.08) ; (omega_q = 1.509e-02*i)
WARNING, 1 imaginary frequencies at q = ( 0.12, -0.03,  0.07) ; (omega_q = 3.928e-02*i)
WARNING, 1 imaginary frequencies at q = ( 0.12,  0.03,  0.07) ; (omega_q = 2.723e-02*i)
WARNING, 1 imaginary frequencies at q = ( 0.47, -0.47, -0.12) ; (omega_q = 1.832e-02*i)
WARNING, 1 imaginary frequencies at q = ( 0.47, -0.47, -0.08) ; (omega_q = 5.296e-02*i)
WARNING, 1 imaginary frequencies at q = ( 0.47, -0.47, -0.03) ; (omega_q = 6.358e-02*i)
WARNING, 1 imaginary frequencies at q = ( 0.47, -0.47,  0.03) ; (omega_q = 6.281e-02*i)
WARNING, 1 imaginary frequencies at q = ( 0.47, -0.47,  0.07) ; (omega_q = 5.024e-02*i)
WARNING, 1 imaginary frequencies at q = ( 0.47,  0.47, -0.12) ; (omega_q = 4.767e-02*i)
WARNING, 1 imaginary frequencies at q = ( 0.47,  0.47, -0.08) ; (omega_q = 7.519e-02*i)
WARNING, 1 imaginary frequencies at q = ( 0.47,  0.47, -0.03) ; (omega_q = 8.894e-02*i)
WARNING, 1 imaginary frequencies at q = ( 0.47,  0.47,  0.03) ; (omega_q = 9.397e-02*i)
WARNING, 1 imaginary frequencies at q = ( 0.47,  0.47,  0.07) ; (omega_q = 9.118e-02*i)
WARNING, 1 imaginary frequencies at q = ( 0.47,  0.47,  0.12) ; (omega_q = 7.992e-02*i)
WARNING, 1 imaginary frequencies at q = ( 0.47,  0.47,  0.18) ; (omega_q = 5.665e-02*i)

WARNING, 1 imaginary frequencies at q = ( 0.07,  0.03, -0.08) ; (omega_q = 1.981e-02*i)
WARNING, 1 imaginary frequencies at q = ( 0.07,  0.03,  0.03) ; (omega_q = 3.703e-02*i)
WARNING, 1 imaginary frequencies at q = ( 0.07,  0.03,  0.07) ; (omega_q = 6.936e-02*i)
WARNING, 1 imaginary frequencies at q = ( 0.07,  0.03,  0.12) ; (omega_q = 6.107e-02*i)
WARNING, 1 imaginary frequencies at q = ( 0.07,  0.03,  0.18) ; (omega_q = 3.097e-03*i)
WARNING, 1 imaginary frequencies at q = ( 0.12, -0.03, -0.08) ; (omega_q = 1.509e-02*i)
WARNING, 1 imaginary frequencies at q = ( 0.12, -0.03,  0.07) ; (omega_q = 3.928e-02*i)
WARNING, 1 imaginary frequencies at q = ( 0.12,  0.03,  0.07) ; (omega_q = 2.723e-02*i)
WARNING, 1 imaginary frequencies at q = ( 0.47, -0.47, -0.12) ; (omega_q = 1.832e-02*i)
WARNING, 1 imaginary frequencies at q = ( 0.47, -0.47, -0.08) ; (omega_q = 5.296e-02*i)
WARNING, 1 imaginary frequencies at q = ( 0.47, -0.47, -0.03) ; (omega_q = 6.358e-02*i)
WARNING, 1 imaginary frequencies at q = ( 0.47, -0.47,  0.03) ; (omega_q = 6.281e-02*i)
WARNING, 1 imaginary frequencies at q = ( 0.47, -0.47,  0.07) ; (omega_q = 5.024e-02*i)
WARNING, 1 imaginary frequencies at q = ( 0.47,  0.47, -0.12) ; (omega_q = 4.767e-02*i)
WARNING, 1 imaginary frequencies at q = ( 0.47,  0.47, -0.08) ; (omega_q = 7.519e-02*i)
WARNING, 1 imaginary frequencies at q = ( 0.47,  0.47, -0.03) ; (omega_q = 8.894e-02*i)
WARNING, 1 imaginary frequencies at q = ( 0.47,  0.47,  0.03) ; (omega_q = 9.397e-02*i)
WARNING, 1 imaginary frequencies at q = ( 0.47,  0.47,  0.07) ; (omega_q = 9.118e-02*i)
WARNING, 1 imaginary frequencies at q = ( 0.47,  0.47,  0.12) ; (omega_q = 7.992e-02*i)
WARNING, 1 imaginary frequencies at q = ( 0.47,  0.47,  0.18) ; (omega_q = 5.665e-02*i)

WARNING, 1 imaginary frequencies at q = ( 0.07,  0.03, -0.08) ; (omega_q = 1.981e-02*i)
WARNING, 1 imaginary frequencies at q = ( 0.07,  0.03,  0.03) ; (omega_q = 3.703e-02*i)
WARNING, 1 imaginary frequencies at q = ( 0.07,  0.03,  0.07) ; (omega_q = 6.936e-02*i)
WARNING, 1 imaginary frequencies at q = ( 0.07,  0.03,  0.12) ; (omega_q = 6.107e-02*i)
WARNING, 1 imaginary frequencies at q = ( 0.07,  0.03,  0.18) ; (omega_q = 3.097e-03*i)
WARNING, 1 imaginary frequencies at q = ( 0.12, -0.03, -0.08) ; (omega_q = 1.509e-02*i)
WARNING, 1 imaginary frequencies at q = ( 0.12, -0.03,  0.07) ; (omega_q = 3.928e-02*i)
WARNING, 1 imaginary frequencies at q = ( 0.12,  0.03,  0.07) ; (omega_q = 2.723e-02*i)
WARNING, 1 imaginary frequencies at q = ( 0.47, -0.47, -0.12) ; (omega_q = 1.832e-02*i)
WARNING, 1 imaginary frequencies at q = ( 0.47, -0.47, -0.08) ; (omega_q = 5.296e-02*i)
WARNING, 1 imaginary frequencies at q = ( 0.47, -0.47, -0.03) ; (omega_q = 6.358e-02*i)
WARNING, 1 imaginary frequencies at q = ( 0.47, -0.47,  0.03) ; (omega_q = 6.281e-02*i)
WARNING, 1 imaginary frequencies at q = ( 0.47, -0.47,  0.07) ; (omega_q = 5.024e-02*i)
WARNING, 1 imaginary frequencies at q = ( 0.47,  0.47, -0.12) ; (omega_q = 4.767e-02*i)
WARNING, 1 imaginary frequencies at q = ( 0.47,  0.47, -0.08) ; (omega_q = 7.519e-02*i)
WARNING, 1 imaginary frequencies at q = ( 0.47,  0.47, -0.03) ; (omega_q = 8.894e-02*i)
WARNING, 1 imaginary frequencies at q = ( 0.47,  0.47,  0.03) ; (omega_q = 9.397e-02*i)
WARNING, 1 imaginary frequencies at q = ( 0.47,  0.47,  0.07) ; (omega_q = 9.118e-02*i)
WARNING, 1 imaginary frequencies at q = ( 0.47,  0.47,  0.12) ; (omega_q = 7.992e-02*i)
WARNING, 1 imaginary frequencies at q = ( 0.47,  0.47,  0.18) ; (omega_q = 5.665e-02*i)

WARNING, 1 imaginary frequencies at q = ( 0.07,  0.03, -0.08) ; (omega_q = 1.981e-02*i)
WARNING, 1 imaginary frequencies at q = ( 0.07,  0.03,  0.03) ; (omega_q = 3.703e-02*i)
WARNING, 1 imaginary frequencies at q = ( 0.07,  0.03,  0.07) ; (omega_q = 6.936e-02*i)
WARNING, 1 imaginary frequencies at q = ( 0.07,  0.03,  0.12) ; (omega_q = 6.107e-02*i)
WARNING, 1 imaginary frequencies at q = ( 0.07,  0.03,  0.18) ; (omega_q = 3.097e-03*i)
WARNING, 1 imaginary frequencies at q = ( 0.12, -0.03, -0.08) ; (omega_q = 1.509e-02*i)
WARNING, 1 imaginary frequencies at q = ( 0.12, -0.03,  0.07) ; (omega_q = 3.928e-02*i)
WARNING, 1 imaginary frequencies at q = ( 0.12,  0.03,  0.07) ; (omega_q = 2.723e-02*i)
WARNING, 1 imaginary frequencies at q = ( 0.47, -0.47, -0.12) ; (omega_q = 1.832e-02*i)
WARNING, 1 imaginary frequencies at q = ( 0.47, -0.47, -0.08) ; (omega_q = 5.296e-02*i)
WARNING, 1 imaginary frequencies at q = ( 0.47, -0.47, -0.03) ; (omega_q = 6.358e-02*i)
WARNING, 1 imaginary frequencies at q = ( 0.47, -0.47,  0.03) ; (omega_q = 6.281e-02*i)
WARNING, 1 imaginary frequencies at q = ( 0.47, -0.47,  0.07) ; (omega_q = 5.024e-02*i)
WARNING, 1 imaginary frequencies at q = ( 0.47,  0.47, -0.12) ; (omega_q = 4.767e-02*i)
WARNING, 1 imaginary frequencies at q = ( 0.47,  0.47, -0.08) ; (omega_q = 7.519e-02*i)
WARNING, 1 imaginary frequencies at q = ( 0.47,  0.47, -0.03) ; (omega_q = 8.894e-02*i)
WARNING, 1 imaginary frequencies at q = ( 0.47,  0.47,  0.03) ; (omega_q = 9.397e-02*i)
WARNING, 1 imaginary frequencies at q = ( 0.47,  0.47,  0.07) ; (omega_q = 9.118e-02*i)
WARNING, 1 imaginary frequencies at q = ( 0.47,  0.47,  0.12) ; (omega_q = 7.992e-02*i)
WARNING, 1 imaginary frequencies at q = ( 0.47,  0.47,  0.18) ; (omega_q = 5.665e-02*i)

WARNING, 1 imaginary frequencies at q = ( 0.07,  0.03, -0.08) ; (omega_q = 1.981e-02*i)
WARNING, 1 imaginary frequencies at q = ( 0.07,  0.03,  0.03) ; (omega_q = 3.703e-02*i)
WARNING, 1 imaginary frequencies at q = ( 0.07,  0.03,  0.07) ; (omega_q = 6.936e-02*i)
WARNING, 1 imaginary frequencies at q = ( 0.07,  0.03,  0.12) ; (omega_q = 6.107e-02*i)
WARNING, 1 imaginary frequencies at q = ( 0.07,  0.03,  0.18) ; (omega_q = 3.097e-03*i)
WARNING, 1 imaginary frequencies at q = ( 0.12, -0.03, -0.08) ; (omega_q = 1.509e-02*i)
WARNING, 1 imaginary frequencies at q = ( 0.12, -0.03,  0.07) ; (omega_q = 3.928e-02*i)
WARNING, 1 imaginary frequencies at q = ( 0.12,  0.03,  0.07) ; (omega_q = 2.723e-02*i)
WARNING, 1 imaginary frequencies at q = ( 0.47, -0.47, -0.12) ; (omega_q = 1.832e-02*i)
WARNING, 1 imaginary frequencies at q = ( 0.47, -0.47, -0.08) ; (omega_q = 5.296e-02*i)
WARNING, 1 imaginary frequencies at q = ( 0.47, -0.47, -0.03) ; (omega_q = 6.358e-02*i)
WARNING, 1 imaginary frequencies at q = ( 0.47, -0.47,  0.03) ; (omega_q = 6.281e-02*i)
WARNING, 1 imaginary frequencies at q = ( 0.47, -0.47,  0.07) ; (omega_q = 5.024e-02*i)
WARNING, 1 imaginary frequencies at q = ( 0.47,  0.47, -0.12) ; (omega_q = 4.767e-02*i)
WARNING, 1 imaginary frequencies at q = ( 0.47,  0.47, -0.08) ; (omega_q = 7.519e-02*i)
WARNING, 1 imaginary frequencies at q = ( 0.47,  0.47, -0.03) ; (omega_q = 8.894e-02*i)
WARNING, 1 imaginary frequencies at q = ( 0.47,  0.47,  0.03) ; (omega_q = 9.397e-02*i)
WARNING, 1 imaginary frequencies at q = ( 0.47,  0.47,  0.07) ; (omega_q = 9.118e-02*i)
WARNING, 1 imaginary frequencies at q = ( 0.47,  0.47,  0.12) ; (omega_q = 7.992e-02*i)
WARNING, 1 imaginary frequencies at q = ( 0.47,  0.47,  0.18) ; (omega_q = 5.665e-02*i)

WARNING, 1 imaginary frequencies at q = ( 0.07,  0.03, -0.08) ; (omega_q = 1.981e-02*i)
WARNING, 1 imaginary frequencies at q = ( 0.07,  0.03,  0.03) ; (omega_q = 3.703e-02*i)
WARNING, 1 imaginary frequencies at q = ( 0.07,  0.03,  0.07) ; (omega_q = 6.936e-02*i)
WARNING, 1 imaginary frequencies at q = ( 0.07,  0.03,  0.12) ; (omega_q = 6.107e-02*i)
WARNING, 1 imaginary frequencies at q = ( 0.07,  0.03,  0.18) ; (omega_q = 3.097e-03*i)
WARNING, 1 imaginary frequencies at q = ( 0.12, -0.03, -0.08) ; (omega_q = 1.509e-02*i)
WARNING, 1 imaginary frequencies at q = ( 0.12, -0.03,  0.07) ; (omega_q = 3.928e-02*i)
WARNING, 1 imaginary frequencies at q = ( 0.12,  0.03,  0.07) ; (omega_q = 2.723e-02*i)
WARNING, 1 imaginary frequencies at q = ( 0.47, -0.47, -0.12) ; (omega_q = 1.832e-02*i)
WARNING, 1 imaginary frequencies at q = ( 0.47, -0.47, -0.08) ; (omega_q = 5.296e-02*i)
WARNING, 1 imaginary frequencies at q = ( 0.47, -0.47, -0.03) ; (omega_q = 6.358e-02*i)
WARNING, 1 imaginary frequencies at q = ( 0.47, -0.47,  0.03) ; (omega_q = 6.281e-02*i)
WARNING, 1 imaginary frequencies at q = ( 0.47, -0.47,  0.07) ; (omega_q = 5.024e-02*i)
WARNING, 1 imaginary frequencies at q = ( 0.47,  0.47, -0.12) ; (omega_q = 4.767e-02*i)
WARNING, 1 imaginary frequencies at q = ( 0.47,  0.47, -0.08) ; (omega_q = 7.519e-02*i)
WARNING, 1 imaginary frequencies at q = ( 0.47,  0.47, -0.03) ; (omega_q = 8.894e-02*i)
WARNING, 1 imaginary frequencies at q = ( 0.47,  0.47,  0.03) ; (omega_q = 9.397e-02*i)
WARNING, 1 imaginary frequencies at q = ( 0.47,  0.47,  0.07) ; (omega_q = 9.118e-02*i)
WARNING, 1 imaginary frequencies at q = ( 0.47,  0.47,  0.12) ; (omega_q = 7.992e-02*i)
WARNING, 1 imaginary frequencies at q = ( 0.47,  0.47,  0.18) ; (omega_q = 5.665e-02*i)

WARNING, 1 imaginary frequencies at q = ( 0.07,  0.03, -0.08) ; (omega_q = 1.981e-02*i)
WARNING, 1 imaginary frequencies at q = ( 0.07,  0.03,  0.03) ; (omega_q = 3.703e-02*i)
WARNING, 1 imaginary frequencies at q = ( 0.07,  0.03,  0.07) ; (omega_q = 6.936e-02*i)
WARNING, 1 imaginary frequencies at q = ( 0.07,  0.03,  0.12) ; (omega_q = 6.107e-02*i)
WARNING, 1 imaginary frequencies at q = ( 0.07,  0.03,  0.18) ; (omega_q = 3.097e-03*i)
WARNING, 1 imaginary frequencies at q = ( 0.12, -0.03, -0.08) ; (omega_q = 1.509e-02*i)
WARNING, 1 imaginary frequencies at q = ( 0.12, -0.03,  0.07) ; (omega_q = 3.928e-02*i)
WARNING, 1 imaginary frequencies at q = ( 0.12,  0.03,  0.07) ; (omega_q = 2.723e-02*i)
WARNING, 1 imaginary frequencies at q = ( 0.47, -0.47, -0.12) ; (omega_q = 1.832e-02*i)
WARNING, 1 imaginary frequencies at q = ( 0.47, -0.47, -0.08) ; (omega_q = 5.296e-02*i)
WARNING, 1 imaginary frequencies at q = ( 0.47, -0.47, -0.03) ; (omega_q = 6.358e-02*i)
WARNING, 1 imaginary frequencies at q = ( 0.47, -0.47,  0.03) ; (omega_q = 6.281e-02*i)
WARNING, 1 imaginary frequencies at q = ( 0.47, -0.47,  0.07) ; (omega_q = 5.024e-02*i)
WARNING, 1 imaginary frequencies at q = ( 0.47,  0.47, -0.12) ; (omega_q = 4.767e-02*i)
WARNING, 1 imaginary frequencies at q = ( 0.47,  0.47, -0.08) ; (omega_q = 7.519e-02*i)
WARNING, 1 imaginary frequencies at q = ( 0.47,  0.47, -0.03) ; (omega_q = 8.894e-02*i)
WARNING, 1 imaginary frequencies at q = ( 0.47,  0.47,  0.03) ; (omega_q = 9.397e-02*i)
WARNING, 1 imaginary frequencies at q = ( 0.47,  0.47,  0.07) ; (omega_q = 9.118e-02*i)
WARNING, 1 imaginary frequencies at q = ( 0.47,  0.47,  0.12) ; (omega_q = 7.992e-02*i)
WARNING, 1 imaginary frequencies at q = ( 0.47,  0.47,  0.18) ; (omega_q = 5.665e-02*i)
Timing:                                      incl.     excl.
-------------------------------------------------------------------
Density initialized from wave functions:    61.051    61.050   0.4% |
 Symmetrize density:                         0.000     0.000   0.0% |
Forces:                                    387.674   387.674   2.4% ||
Hamiltonian:                                 4.967     0.023   0.0% |
 Atomic:                                     0.911     0.706   0.0% |
  XC Correction:                             0.205     0.205   0.0% |
 Calculate atomic Hamiltonians:              3.195     3.195   0.0% |
 Communicate:                                0.003     0.003   0.0% |
 Initialize Hamiltonian:                     0.001     0.001   0.0% |
 Poisson:                                    0.022     0.022   0.0% |
 XC 3D grid:                                 0.812     0.812   0.0% |
LCAO initialization:                       282.602     0.033   0.0% |
 LCAO eigensolver:                           2.464     0.012   0.0% |
  Calculate projections:                     0.238     0.238   0.0% |
  DenseAtomicCorrection:                     0.338     0.338   0.0% |
  Distribute overlap matrix:                 0.019     0.019   0.0% |
  Orbital Layouts:                           0.590     0.590   0.0% |
  Potential matrix:                          0.538     0.538   0.0% |
  Sum over cells:                            0.728     0.728   0.0% |
 LCAO to grid:                             250.453   250.453   1.5% ||
 Set positions (LCAO WFS):                  29.652     1.807   0.0% |
  Basic WFS set positions:                   0.001     0.001   0.0% |
  Basis functions set positions:             0.000     0.000   0.0% |
  P tci:                                    24.445    24.445   0.1% |
  ST tci:                                    3.315     3.315   0.0% |
  mktci:                                     0.083     0.083   0.0% |
PWDescriptor:                                0.143     0.143   0.0% |
Redistribute:                                2.147     2.147   0.0% |
SCF-cycle:                               15513.045   964.924   5.9% |-|
 Davidson:                               13591.134  4137.228  25.3% |---------|
  Apply H:                                1630.650  1572.550   9.6% |---|
   HMM T:                                   58.100    58.100   0.4% |
  Subspace diag:                          2218.341     3.648   0.0% |
   calc_h_matrix:                         1850.513   197.389   1.2% |
    Apply H:                              1653.124  1575.237   9.6% |---|
     HMM T:                                 77.887    77.887   0.5% |
   diagonalize:                             33.184    33.184   0.2% |
   rotate_psi:                             330.997   330.997   2.0% ||
  calc. matrices:                         4570.465  1321.827   8.1% |--|
   Apply H:                               3248.638  3134.415  19.2% |-------|
    HMM T:                                 114.223   114.223   0.7% |
  diagonalize:                             351.849   351.849   2.2% ||
  rotate_psi:                              682.600   682.600   4.2% |-|
 Density:                                  796.776     0.005   0.0% |
  Atomic density matrices:                  29.235    29.235   0.2% |
  Mix:                                      44.992    44.992   0.3% |
  Multipole moments:                         0.152     0.152   0.0% |
  Pseudo density:                          722.392   722.385   4.4% |-|
   Symmetrize density:                       0.008     0.008   0.0% |
 Hamiltonian:                               58.695     0.260   0.0% |
  Atomic:                                    9.395     6.954   0.0% |
   XC Correction:                            2.441     2.441   0.0% |
  Calculate atomic Hamiltonians:            38.856    38.856   0.2% |
  Communicate:                               0.065     0.065   0.0% |
  Poisson:                                   0.291     0.291   0.0% |
  XC 3D grid:                                9.828     9.828   0.1% |
 Orthonormalize:                           101.516     0.297   0.0% |
  calc_s_matrix:                             9.824     9.824   0.1% |
  inverse-cholesky:                          1.085     1.085   0.0% |
  projections:                              76.331    76.331   0.5% |
  rotate_psi_s:                             13.979    13.979   0.1% |
Set symmetry:                                0.144     0.144   0.0% |
Other:                                      84.446    84.446   0.5% |
-------------------------------------------------------------------
Total:                                             16336.219 100.0%

Memory usage: 1.48 GiB
Date: Fri Mar 13 10:42:53 2020
------------------ Task 7 done -------------------
