------------------ Task 7 start ------------------
System created
---- Iteration: 1 ---- k=4 ----
Energy: -11.8724 eV ---- Time: 2.03 s
---- Iteration: 2 ---- k=8 ----
Energy: -11.8753 eV ---- Time: 1.88 s
---- Iteration: 3 ---- k=12 ----
Energy: -11.8753 eV ---- Time: 3.45 s
Written to DB
Optimal k-parameter: k=16
Calculator saved

  ___ ___ ___ _ _ _  
 |   |   |_  | | | | 
 | | | | | . | | | | 
 |__ |  _|___|_____|  19.8.1
 |___|_|             

User:   ericlin@hebbe05-3
Date:   Thu Mar  5 08:59:38 2020
Arch:   x86_64
Pid:    22384
Python: 3.7.2
gpaw:   /apps/Hebbe7/software/MPI/intel/2019.1.144-GCC-8.2.0-2.31.1/impi/2018.4.274/GPAW/19.8.1-Python-3.7.2/lib/python3.7/site-packages/gpaw
_gpaw:  /apps/Hebbe7/software/MPI/intel/2019.1.144-GCC-8.2.0-2.31.1/impi/2018.4.274/GPAW/19.8.1-Python-3.7.2/bin/
        gpaw-python
ase:    /apps/Hebbe7/software/MPI/intel/2019.1.144-GCC-8.2.0-2.31.1/impi/2018.4.274/ASE/3.18.0-Python-3.7.2/lib/python3.7/site-packages/ase (version 3.18.0)
numpy:  /apps/Hebbe7/software/MPI/intel/2019.1.144-GCC-8.2.0-2.31.1/impi/2018.4.274/SciPy-bundle/2019.03/lib/python3.7/site-packages/numpy (version 1.16.2)
scipy:  /apps/Hebbe7/software/MPI/intel/2019.1.144-GCC-8.2.0-2.31.1/impi/2018.4.274/SciPy-bundle/2019.03/lib/python3.7/site-packages/scipy (version 1.2.1)
libxc:  4.3.4
units:  Angstrom and eV
cores:  10

Reading from Si_calc.gpw
Read dipole, energy, free_energy
Reading input parameters:
  kpts: [12 12 12]
  mode: {ecut: 200.0,
         gammacentered: False,
         name: pw}

Initialize ...

Si-setup:
  name: Silicon
  id: b152d83ba7c91a8f3191da15c74e1ae7
  Z: 14
  valence: 4
  core: 10
  charge: 0.0
  file: /apps/Common/Core/GPAW-setups/0.9.20000/Si.LDA.gz
  compensation charges: gauss, rc=0.33, lmax=2
  cutoffs: 1.86(filt), 2.06(core),
  valence states:
                energy  radius
    3s(2.00)   -10.878   1.058
    3p(2.00)    -4.162   1.058
    *s          16.334   1.058
    *p          23.049   1.058
    *d           0.000   1.058

  Using partial waves for Si as LCAO basis

Reference energy: -15717.426366

Spin-paired calculation

Occupation numbers:
  Fermi-Dirac: width=0.1000 eV

Convergence criteria:
  Maximum total energy change: 0.0005 eV / electron
  Maximum integral of absolute density change: 0.0001 electrons
  Maximum integral of absolute eigenstate change: 4e-08 eV^2
  Maximum number of iterations: 333

Symmetries present (total): 24

  ( 1  0  0)  ( 1  0  0)  ( 1  0 -1)  ( 1  0 -1)  ( 1 -1  0)  ( 1 -1  0)
  ( 0  1  0)  ( 0  0  1)  ( 0  1 -1)  ( 0  0 -1)  ( 0 -1  1)  ( 0 -1  0)
  ( 0  0  1)  ( 0  1  0)  ( 0  0 -1)  ( 0  1 -1)  ( 0 -1  0)  ( 0 -1  1)

  ( 0  1  0)  ( 0  1  0)  ( 0  1 -1)  ( 0  1 -1)  ( 0  0  1)  ( 0  0  1)
  ( 1  0  0)  ( 0  0  1)  ( 1  0 -1)  ( 0  0 -1)  ( 1  0  0)  ( 0  1  0)
  ( 0  0  1)  ( 1  0  0)  ( 0  0 -1)  ( 1  0 -1)  ( 0  1  0)  ( 1  0  0)

  ( 0  0 -1)  ( 0  0 -1)  ( 0 -1  1)  ( 0 -1  1)  ( 0 -1  0)  ( 0 -1  0)
  ( 1  0 -1)  ( 0  1 -1)  ( 1 -1  0)  ( 0 -1  0)  ( 1 -1  0)  ( 0 -1  1)
  ( 0  1 -1)  ( 1  0 -1)  ( 0 -1  0)  ( 1 -1  0)  ( 0 -1  1)  ( 1 -1  0)

  (-1  1  0)  (-1  1  0)  (-1  0  1)  (-1  0  1)  (-1  0  0)  (-1  0  0)
  (-1  0  1)  (-1  0  0)  (-1  1  0)  (-1  0  0)  (-1  1  0)  (-1  0  1)
  (-1  0  0)  (-1  0  1)  (-1  0  0)  (-1  1  0)  (-1  0  1)  (-1  1  0)
Note: your k-points are not as symmetric as your crystal!

1728 k-points: 12 x 12 x 12 Monkhorst-Pack grid
182 k-points in the irreducible part of the Brillouin zone
       k-points in crystal coordinates                weights
   0:     0.04166667    0.04166667   -0.04166667          6/1728
   1:     0.04166667    0.04166667    0.04166667          2/1728
   2:     0.12500000   -0.04166667   -0.04166667          6/1728
   3:     0.12500000    0.04166667   -0.12500000         12/1728
   4:     0.12500000    0.04166667   -0.04166667         12/1728
   5:     0.12500000    0.04166667    0.04166667          6/1728
   6:     0.12500000    0.12500000   -0.12500000          6/1728
   7:     0.12500000    0.12500000   -0.04166667          6/1728
   8:     0.12500000    0.12500000    0.04166667          6/1728
   9:     0.12500000    0.12500000    0.12500000          2/1728
          ...
 181:     0.45833333    0.45833333    0.45833333          2/1728

Wave functions: Plane wave expansion
  Cutoff energy: 200.000 eV
  Number of coefficients (min, max): 250, 271
  Pulay-stress correction: 0.000000 eV/Ang^3 (de/decut=0.000000)
  Using FFTW library
  ScaLapack parameters: grid=1x1, blocksize=None
  Wavefunction extrapolation:
    Improved wavefunction reuse through dual PAW basis 

Eigensolver
   Davidson(niter=2, smin=None, normalize=True) 

Densities:
  Coarse grid: 14*14*14 grid
  Fine grid: 28*28*28 grid
  Total Charge: 0.000000 

Density mixing:
  Method: separate
  Backend: pulay
  Linear mixing parameter: 0.05
  Mixing with 5 old densities
  Damping of long wave oscillations: 50 

Hamiltonian:
  XC and Coulomb potentials evaluated on a 28*28*28 grid
  Using the LDA Exchange-Correlation functional
 

Memory estimate:
  Process memory now: 106.61 MiB
  Calculator: 2.79 MiB
    Density: 1.03 MiB
      Arrays: 0.54 MiB
      Localized functions: 0.27 MiB
      Mixer: 0.21 MiB
    Hamiltonian: 0.36 MiB
      Arrays: 0.36 MiB
      XC: 0.00 MiB
      Poisson: 0.00 MiB
      vbar: 0.01 MiB
    Wavefunctions: 1.40 MiB
      Arrays psit_nG: 0.60 MiB
      Eigensolver: 0.06 MiB
      Projections: 0.06 MiB
      Projectors: 0.51 MiB
      PW-descriptor: 0.18 MiB

Total number of cores used: 10
Parallelization over k-points: 10

Number of atoms: 2
Number of atomic orbitals: 8
Number of bands in calculation: 8
Bands to converge: occupied states only
Number of valence electrons: 8

... initialized

Input parameters:
  fixdensity: True
  kpts: {npoints: 60,
         path: GXWKL}
  symmetry: off

Initialize ...

Si-setup:
  name: Silicon
  id: b152d83ba7c91a8f3191da15c74e1ae7
  Z: 14
  valence: 4
  core: 10
  charge: 0.0
  file: /apps/Common/Core/GPAW-setups/0.9.20000/Si.LDA.gz
  compensation charges: gauss, rc=0.33, lmax=2
  cutoffs: 1.86(filt), 2.06(core),
  valence states:
                energy  radius
    3s(2.00)   -10.878   1.058
    3p(2.00)    -4.162   1.058
    *s          16.334   1.058
    *p          23.049   1.058
    *d           0.000   1.058

  Using partial waves for Si as LCAO basis

Reference energy: -15717.426366

Spin-paired calculation

Occupation numbers:
  Fixed Fermi level
  Fermi-Dirac: width=0.1000 eV

Convergence criteria:
  Maximum total energy change: 0.0005 eV / electron
  Maximum integral of absolute density change: 0.0001 electrons
  Maximum integral of absolute eigenstate change: 4e-08 eV^2
  Maximum number of iterations: 333

Symmetries present (total): 1

  ( 1  0  0)
  ( 0  1  0)
  ( 0  0  1)

60 k-points
60 k-points in the irreducible part of the Brillouin zone
       k-points in crystal coordinates                weights
   0:     0.00000000    0.00000000    0.00000000       0.01666667
   1:     0.02173913    0.00000000    0.02173913       0.01666667
   2:     0.04347826    0.00000000    0.04347826       0.01666667
   3:     0.06521739    0.00000000    0.06521739       0.01666667
   4:     0.08695652    0.00000000    0.08695652       0.01666667
   5:     0.10869565    0.00000000    0.10869565       0.01666667
   6:     0.13043478    0.00000000    0.13043478       0.01666667
   7:     0.15217391    0.00000000    0.15217391       0.01666667
   8:     0.17391304    0.00000000    0.17391304       0.01666667
   9:     0.19565217    0.00000000    0.19565217       0.01666667
          ...
  59:     0.50000000    0.50000000    0.50000000       0.01666667

Wave functions: Plane wave expansion
  Cutoff energy: 200.000 eV
  Number of coefficients (min, max): 246, 267
  Pulay-stress correction: 0.000000 eV/Ang^3 (de/decut=0.000000)
  Using FFTW library
  ScaLapack parameters: grid=1x1, blocksize=None
  Wavefunction extrapolation:
    Improved wavefunction reuse through dual PAW basis 

Eigensolver
   Davidson(niter=2, smin=None, normalize=True) 

No density mixing

Memory estimate:
  Process memory now: 108.63 MiB
  Calculator: 1.96 MiB
    Density: 1.03 MiB
      Arrays: 0.54 MiB
      Localized functions: 0.27 MiB
      Mixer: 0.21 MiB
    Hamiltonian: 0.36 MiB
      Arrays: 0.36 MiB
      XC: 0.00 MiB
      Poisson: 0.00 MiB
      vbar: 0.01 MiB
    Wavefunctions: 0.57 MiB
      Arrays psit_nG: 0.20 MiB
      Eigensolver: 0.06 MiB
      Projections: 0.02 MiB
      Projectors: 0.17 MiB
      PW-descriptor: 0.13 MiB

Total number of cores used: 10
Parallelization over k-points: 10

Number of atoms: 2
Number of atomic orbitals: 8
Number of bands in calculation: 8
Bands to converge: occupied states only
Number of valence electrons: 8

... initialized

Initializing position-dependent things.

Creating initial wave functions:
  8 bands from LCAO basis set

                    
                    
                    
                    
           Si       
                    
       Si           
                    
                    
                    
                    

Positions:
   0 Si     0.000000    0.000000    0.000000    ( 0.0000,  0.0000,  0.0000)
   1 Si     1.357500    1.357500    1.357500    ( 0.0000,  0.0000,  0.0000)

Unit cell:
           periodic     x           y           z      points  spacing
  1. axis:    yes    0.000000    2.715000    2.715000    14     0.2239
  2. axis:    yes    2.715000    0.000000    2.715000    14     0.2239
  3. axis:    yes    2.715000    2.715000    0.000000    14     0.2239

  Lengths:   3.839590   3.839590   3.839590
  Angles:   60.000000  60.000000  60.000000

Effective grid spacing dv^(1/3) = 0.2443

                     log10-error:    total        iterations:
           time      wfs    density  energy       fermi  poisson
iter:   1  08:59:39  +0.97          -11.294583    2             
iter:   2  08:59:39  -2.00          -11.306667    2             
iter:   3  08:59:39  -3.51          -11.306954    2             
iter:   4  08:59:40  -4.70          -11.306967    2             
iter:   5  08:59:40  -5.69          -11.306969    2             
iter:   6  08:59:40  -6.60          -11.306969    2             
iter:   7  08:59:40  -7.46          -11.306969    2             

Converged after 7 iterations.

Dipole moment: (-2.925915, -2.925915, -2.925915) |e|*Ang

Energy contributions relative to reference atoms: (reference = -15717.426366)

Kinetic:        +16.235369
Potential:      -13.779902
External:        +0.000000
XC:             -13.709135
Entropy (-ST):   -0.013878
Local:           -0.046361
--------------------------
Free energy:    -11.313908
Extrapolated:   -11.306969

Fixed Fermi level: 5.37250

Showing only first 2 kpts
 Kpt  Band  Eigenvalues  Occupancy
  0     2      5.13866    0.03032
  0     3      5.13866    0.03032
  0     4      7.66949    0.00000
  0     5      7.66949    0.00000

  1     2      5.10267    0.03117
  1     3      5.10267    0.03117
  1     4      7.64777    0.00000
  1     5      7.71557    0.00000


Gap: 0.475 eV
Transition (v -> c):
  (s=0, k=0, n=3, [0.00, 0.00, 0.00]) -> (s=0, k=19, n=4, [0.41, 0.00, 0.41])
Electronic band structure calculated
Writing to Si_electrons.gpw (mode='')

Electronic structure calculation completed
Phononic structure calculation started

  ___ ___ ___ _ _ _  
 |   |   |_  | | | | 
 | | | | | . | | | | 
 |__ |  _|___|_____|  19.8.1
 |___|_|             

User:   ericlin@hebbe05-3
Date:   Thu Mar  5 08:59:40 2020
Arch:   x86_64
Pid:    22384
Python: 3.7.2
gpaw:   /apps/Hebbe7/software/MPI/intel/2019.1.144-GCC-8.2.0-2.31.1/impi/2018.4.274/GPAW/19.8.1-Python-3.7.2/lib/python3.7/site-packages/gpaw
_gpaw:  /apps/Hebbe7/software/MPI/intel/2019.1.144-GCC-8.2.0-2.31.1/impi/2018.4.274/GPAW/19.8.1-Python-3.7.2/bin/
        gpaw-python
ase:    /apps/Hebbe7/software/MPI/intel/2019.1.144-GCC-8.2.0-2.31.1/impi/2018.4.274/ASE/3.18.0-Python-3.7.2/lib/python3.7/site-packages/ase (version 3.18.0)
numpy:  /apps/Hebbe7/software/MPI/intel/2019.1.144-GCC-8.2.0-2.31.1/impi/2018.4.274/SciPy-bundle/2019.03/lib/python3.7/site-packages/numpy (version 1.16.2)
scipy:  /apps/Hebbe7/software/MPI/intel/2019.1.144-GCC-8.2.0-2.31.1/impi/2018.4.274/SciPy-bundle/2019.03/lib/python3.7/site-packages/scipy (version 1.2.1)
libxc:  4.3.4
units:  Angstrom and eV
cores:  10

Reading from Si_calc.gpw
Read dipole, energy, free_energy
Reading input parameters:
  kpts: [12 12 12]
  mode: {ecut: 200.0,
         gammacentered: False,
         name: pw}

Initialize ...

Si-setup:
  name: Silicon
  id: b152d83ba7c91a8f3191da15c74e1ae7
  Z: 14
  valence: 4
  core: 10
  charge: 0.0
  file: /apps/Common/Core/GPAW-setups/0.9.20000/Si.LDA.gz
  compensation charges: gauss, rc=0.33, lmax=2
  cutoffs: 1.86(filt), 2.06(core),
  valence states:
                energy  radius
    3s(2.00)   -10.878   1.058
    3p(2.00)    -4.162   1.058
    *s          16.334   1.058
    *p          23.049   1.058
    *d           0.000   1.058

  Using partial waves for Si as LCAO basis

Reference energy: -15717.426366

Spin-paired calculation

Occupation numbers:
  Fermi-Dirac: width=0.1000 eV

Convergence criteria:
  Maximum total energy change: 0.0005 eV / electron
  Maximum integral of absolute density change: 0.0001 electrons
  Maximum integral of absolute eigenstate change: 4e-08 eV^2
  Maximum number of iterations: 333

Symmetries present (total): 24

  ( 1  0  0)  ( 1  0  0)  ( 1  0 -1)  ( 1  0 -1)  ( 1 -1  0)  ( 1 -1  0)
  ( 0  1  0)  ( 0  0  1)  ( 0  1 -1)  ( 0  0 -1)  ( 0 -1  1)  ( 0 -1  0)
  ( 0  0  1)  ( 0  1  0)  ( 0  0 -1)  ( 0  1 -1)  ( 0 -1  0)  ( 0 -1  1)

  ( 0  1  0)  ( 0  1  0)  ( 0  1 -1)  ( 0  1 -1)  ( 0  0  1)  ( 0  0  1)
  ( 1  0  0)  ( 0  0  1)  ( 1  0 -1)  ( 0  0 -1)  ( 1  0  0)  ( 0  1  0)
  ( 0  0  1)  ( 1  0  0)  ( 0  0 -1)  ( 1  0 -1)  ( 0  1  0)  ( 1  0  0)

  ( 0  0 -1)  ( 0  0 -1)  ( 0 -1  1)  ( 0 -1  1)  ( 0 -1  0)  ( 0 -1  0)
  ( 1  0 -1)  ( 0  1 -1)  ( 1 -1  0)  ( 0 -1  0)  ( 1 -1  0)  ( 0 -1  1)
  ( 0  1 -1)  ( 1  0 -1)  ( 0 -1  0)  ( 1 -1  0)  ( 0 -1  1)  ( 1 -1  0)

  (-1  1  0)  (-1  1  0)  (-1  0  1)  (-1  0  1)  (-1  0  0)  (-1  0  0)
  (-1  0  1)  (-1  0  0)  (-1  1  0)  (-1  0  0)  (-1  1  0)  (-1  0  1)
  (-1  0  0)  (-1  0  1)  (-1  0  0)  (-1  1  0)  (-1  0  1)  (-1  1  0)
Note: your k-points are not as symmetric as your crystal!

1728 k-points: 12 x 12 x 12 Monkhorst-Pack grid
182 k-points in the irreducible part of the Brillouin zone
       k-points in crystal coordinates                weights
   0:     0.04166667    0.04166667   -0.04166667          6/1728
   1:     0.04166667    0.04166667    0.04166667          2/1728
   2:     0.12500000   -0.04166667   -0.04166667          6/1728
   3:     0.12500000    0.04166667   -0.12500000         12/1728
   4:     0.12500000    0.04166667   -0.04166667         12/1728
   5:     0.12500000    0.04166667    0.04166667          6/1728
   6:     0.12500000    0.12500000   -0.12500000          6/1728
   7:     0.12500000    0.12500000   -0.04166667          6/1728
   8:     0.12500000    0.12500000    0.04166667          6/1728
   9:     0.12500000    0.12500000    0.12500000          2/1728
          ...
 181:     0.45833333    0.45833333    0.45833333          2/1728

Wave functions: Plane wave expansion
  Cutoff energy: 200.000 eV
  Number of coefficients (min, max): 250, 271
  Pulay-stress correction: 0.000000 eV/Ang^3 (de/decut=0.000000)
  Using FFTW library
  ScaLapack parameters: grid=1x1, blocksize=None
  Wavefunction extrapolation:
    Improved wavefunction reuse through dual PAW basis 

Eigensolver
   Davidson(niter=2, smin=None, normalize=True) 

Densities:
  Coarse grid: 14*14*14 grid
  Fine grid: 28*28*28 grid
  Total Charge: 0.000000 

Density mixing:
  Method: separate
  Backend: pulay
  Linear mixing parameter: 0.05
  Mixing with 5 old densities
  Damping of long wave oscillations: 50 

Hamiltonian:
  XC and Coulomb potentials evaluated on a 28*28*28 grid
  Using the LDA Exchange-Correlation functional
 

Memory estimate:
  Process memory now: 111.06 MiB
  Calculator: 2.79 MiB
    Density: 1.03 MiB
      Arrays: 0.54 MiB
      Localized functions: 0.27 MiB
      Mixer: 0.21 MiB
    Hamiltonian: 0.36 MiB
      Arrays: 0.36 MiB
      XC: 0.00 MiB
      Poisson: 0.00 MiB
      vbar: 0.01 MiB
    Wavefunctions: 1.40 MiB
      Arrays psit_nG: 0.60 MiB
      Eigensolver: 0.06 MiB
      Projections: 0.06 MiB
      Projectors: 0.51 MiB
      PW-descriptor: 0.18 MiB

Total number of cores used: 10
Parallelization over k-points: 10

Number of atoms: 2
Number of atomic orbitals: 8
Number of bands in calculation: 8
Bands to converge: occupied states only
Number of valence electrons: 8

... initialized

Timing:                              incl.     excl.
-----------------------------------------------------------
Hamiltonian:                         0.021     0.000   0.0% |
 Atomic:                             0.016     0.016   0.7% |
  XC Correction:                     0.000     0.000   0.0% |
 Calculate atomic Hamiltonians:      0.001     0.001   0.0% |
 Communicate:                        0.000     0.000   0.0% |
 Poisson:                            0.000     0.000   0.0% |
 XC 3D grid:                         0.004     0.004   0.2% |
LCAO initialization:                 0.236     0.021   0.9% |
 LCAO eigensolver:                   0.051     0.000   0.0% |
  Calculate projections:             0.000     0.000   0.0% |
  DenseAtomicCorrection:             0.001     0.001   0.0% |
  Distribute overlap matrix:         0.000     0.000   0.0% |
  Orbital Layouts:                   0.001     0.001   0.0% |
  Potential matrix:                  0.036     0.036   1.6% ||
  Sum over cells:                    0.012     0.012   0.5% |
 LCAO to grid:                       0.065     0.065   2.8% ||
 Set positions (LCAO WFS):           0.100     0.017   0.7% |
  Basic WFS set positions:           0.000     0.000   0.0% |
  Basis functions set positions:     0.000     0.000   0.0% |
  P tci:                             0.024     0.024   1.0% |
  ST tci:                            0.038     0.038   1.7% ||
  mktci:                             0.021     0.021   0.9% |
PWDescriptor:                        0.004     0.004   0.2% |
Redistribute:                        0.000     0.000   0.0% |
SCF-cycle:                           0.305     0.023   1.0% |
 Davidson:                           0.278     0.079   3.5% ||
  Apply H:                           0.025     0.021   0.9% |
   HMM T:                            0.003     0.003   0.2% |
  Subspace diag:                     0.047     0.003   0.1% |
   calc_h_matrix:                    0.034     0.008   0.4% |
    Apply H:                         0.025     0.022   0.9% |
     HMM T:                          0.004     0.004   0.2% |
   diagonalize:                      0.006     0.006   0.3% |
   rotate_psi:                       0.004     0.004   0.2% |
  calc. matrices:                    0.106     0.056   2.4% ||
   Apply H:                          0.050     0.043   1.9% ||
    HMM T:                           0.007     0.007   0.3% |
  diagonalize:                       0.016     0.016   0.7% |
  rotate_psi:                        0.005     0.005   0.2% |
 Orthonormalize:                     0.004     0.001   0.0% |
  calc_s_matrix:                     0.001     0.001   0.0% |
  inverse-cholesky:                  0.001     0.001   0.0% |
  projections:                       0.001     0.001   0.0% |
  rotate_psi_s:                      0.000     0.000   0.0% |
Set symmetry:                        0.146     0.146   6.4% |--|
Other:                               1.574     1.574  68.8% |---------------------------|
-----------------------------------------------------------
Total:                                         2.286 100.0%

Memory usage: 111.23 MiB
Date: Thu Mar  5 08:59:41 2020
Input parameters:
  symmetry: off

******** Phonon calculation started *********
System changes: positions, numbers, cell, initial_magmoms, initial_charges 

Initialize ...

Si-setup:
  name: Silicon
  id: b152d83ba7c91a8f3191da15c74e1ae7
  Z: 14
  valence: 4
  core: 10
  charge: 0.0
  file: /apps/Common/Core/GPAW-setups/0.9.20000/Si.LDA.gz
  compensation charges: gauss, rc=0.33, lmax=2
  cutoffs: 1.86(filt), 2.06(core),
  valence states:
                energy  radius
    3s(2.00)   -10.878   1.058
    3p(2.00)    -4.162   1.058
    *s          16.334   1.058
    *p          23.049   1.058
    *d           0.000   1.058

  Using partial waves for Si as LCAO basis

Reference energy: -125739.410928

Spin-paired calculation

Occupation numbers:
  Fermi-Dirac: width=0.1000 eV

Convergence criteria:
  Maximum total energy change: 0.0005 eV / electron
  Maximum integral of absolute density change: 0.0001 electrons
  Maximum integral of absolute eigenstate change: 4e-08 eV^2
  Maximum number of iterations: 333

Symmetries present (total): 1

  ( 1  0  0)
  ( 0  1  0)
  ( 0  0  1)

1728 k-points: 12 x 12 x 12 Monkhorst-Pack grid
1728 k-points in the irreducible part of the Brillouin zone
       k-points in crystal coordinates                weights
   0:    -0.45833333   -0.45833333   -0.45833333          1/1728
   1:    -0.45833333   -0.45833333   -0.37500000          1/1728
   2:    -0.45833333   -0.45833333   -0.29166667          1/1728
   3:    -0.45833333   -0.45833333   -0.20833333          1/1728
   4:    -0.45833333   -0.45833333   -0.12500000          1/1728
   5:    -0.45833333   -0.45833333   -0.04166667          1/1728
   6:    -0.45833333   -0.45833333    0.04166667          1/1728
   7:    -0.45833333   -0.45833333    0.12500000          1/1728
   8:    -0.45833333   -0.45833333    0.20833333          1/1728
   9:    -0.45833333   -0.45833333    0.29166667          1/1728
          ...
1727:     0.45833333    0.45833333    0.45833333          1/1728

Wave functions: Plane wave expansion
  Cutoff energy: 200.000 eV
  Number of coefficients (min, max): 2039, 2085
  Pulay-stress correction: 0.000000 eV/Ang^3 (de/decut=0.000000)
  Using FFTW library
  ScaLapack parameters: grid=1x1, blocksize=None
  Wavefunction extrapolation:
    Improved wavefunction reuse through dual PAW basis 

Eigensolver
   Davidson(niter=2, smin=None, normalize=True) 

Densities:
  Coarse grid: 27*27*27 grid
  Fine grid: 54*54*54 grid
  Total Charge: 0.000000 

Density mixing:
  Method: separate
  Backend: pulay
  Linear mixing parameter: 0.05
  Mixing with 5 old densities
  Damping of long wave oscillations: 50 

Hamiltonian:
  XC and Coulomb potentials evaluated on a 54*54*54 grid
  Using the LDA Exchange-Correlation functional
 

Memory estimate:
  Process memory now: 124.37 MiB
  Calculator: 314.80 MiB
    Density: 7.57 MiB
      Arrays: 3.90 MiB
      Localized functions: 2.17 MiB
      Mixer: 1.50 MiB
    Hamiltonian: 2.60 MiB
      Arrays: 2.55 MiB
      XC: 0.00 MiB
      Poisson: 0.00 MiB
      vbar: 0.04 MiB
    Wavefunctions: 304.63 MiB
      Arrays psit_nG: 235.30 MiB
      Eigensolver: 1.81 MiB
      Projections: 23.47 MiB
      Projectors: 37.82 MiB
      PW-descriptor: 6.22 MiB

Total number of cores used: 10
Parallelization over k-points: 10

Number of atoms: 16
Number of atomic orbitals: 64
Number of bands in calculation: 43
Bands to converge: occupied states only
Number of valence electrons: 64

... initialized

Initializing position-dependent things.

Density initialized from atomic densities
Creating initial wave functions:
  43 bands from LCAO basis set

                                      
                                      
                                      
                                      
                             Si       
                    Si                
                        Si            
                      Si              
                Si                    
             Si   Si       Si         
                                      
         Si       Si   Si             
                    Si                
              Si                      
            Si                        
                Si                    
       Si                             
                                      
                                      
                                      
                                      

Positions:
   0 Si     0.000000    0.000000    0.000000    ( 0.0000,  0.0000,  0.0000)
   1 Si     1.357500    1.357500    1.357500    ( 0.0000,  0.0000,  0.0000)
   2 Si     2.715000    2.715000    0.000000    ( 0.0000,  0.0000,  0.0000)
   3 Si     4.072500    4.072500    1.357500    ( 0.0000,  0.0000,  0.0000)
   4 Si     2.715000    0.000000    2.715000    ( 0.0000,  0.0000,  0.0000)
   5 Si     4.072500    1.357500    4.072500    ( 0.0000,  0.0000,  0.0000)
   6 Si     5.430000    2.715000    2.715000    ( 0.0000,  0.0000,  0.0000)
   7 Si     6.787500    4.072500    4.072500    ( 0.0000,  0.0000,  0.0000)
   8 Si     0.000000    2.715000    2.715000    ( 0.0000,  0.0000,  0.0000)
   9 Si     1.357500    4.072500    4.072500    ( 0.0000,  0.0000,  0.0000)
  10 Si     2.715000    5.430000    2.715000    ( 0.0000,  0.0000,  0.0000)
  11 Si     4.072500    6.787500    4.072500    ( 0.0000,  0.0000,  0.0000)
  12 Si     2.715000    2.715000    5.430000    ( 0.0000,  0.0000,  0.0000)
  13 Si     4.072500    4.072500    6.787500    ( 0.0000,  0.0000,  0.0000)
  14 Si     5.430000    5.430000    5.430000    ( 0.0000,  0.0000,  0.0000)
  15 Si     6.787500    6.787500    6.787500    ( 0.0000,  0.0000,  0.0000)

Unit cell:
           periodic     x           y           z      points  spacing
  1. axis:    yes    0.000000    5.430000    5.430000    27     0.2322
  2. axis:    yes    5.430000    0.000000    5.430000    27     0.2322
  3. axis:    yes    5.430000    5.430000    0.000000    27     0.2322

  Lengths:   7.679180   7.679180   7.679180
  Angles:   60.000000  60.000000  60.000000

Effective grid spacing dv^(1/3) = 0.2534

                     log10-error:    total        iterations:
           time      wfs    density  energy       fermi  poisson
iter:   1  09:02:20  +0.40   +inf   -96.314316    2             
iter:   2  09:02:51  -1.84  -0.80   -96.280509    2             
iter:   3  09:03:22  -1.16  -0.80   -97.067791    29            
iter:   4  09:03:53  -2.85  -0.87   -95.849879    4             
iter:   5  09:04:24  -3.55  -1.08   -95.617912    3             
iter:   6  09:04:55  -2.13  -1.15   -95.000559    5             
iter:   7  09:05:26  -3.42  -2.70   -95.005611    2             
iter:   8  09:05:57  -4.55  -2.32   -95.002148    3             
iter:   9  09:06:28  -4.50  -3.05   -95.005065    2             
iter:  10  09:06:59  -5.48  -2.33   -95.005957    2             
iter:  11  09:07:30  -4.73  -2.26   -95.002371    2             
iter:  12  09:08:00  -5.21  -2.87   -95.002145    2             
iter:  13  09:08:31  -6.69  -3.31   -95.002142    2             
iter:  14  09:09:02  -7.19  -4.44   -95.002134    2             
iter:  15  09:09:33  -7.41  -3.83   -95.002135    2             
iter:  16  09:10:04  -7.56  -4.17   -95.002137    2             

Converged after 16 iterations.

Dipole moment: (-23.407529, -23.407530, -23.407530) |e|*Ang

Energy contributions relative to reference atoms: (reference = -125739.410928)

Kinetic:       +125.243870
Potential:     -110.206868
External:        +0.000000
XC:            -109.669090
Entropy (-ST):   -0.008258
Local:           -0.365920
--------------------------
Free energy:    -95.006266
Extrapolated:   -95.002137

Fermi level: 5.37227

Showing only first 2 kpts
 Kpt  Band  Eigenvalues  Occupancy
  0    30      4.45105    0.00116
  0    31      4.45105    0.00116
  0    32      6.44028    0.00000
  0    33      6.44028    0.00000

  1    30      4.38848    0.00116
  1    31      4.50365    0.00116
  1    32      6.39245    0.00000
  1    33      6.49693    0.00000


Gap: 0.506 eV
Transition (v -> c):
  (s=0, k=942, n=31, [0.04, 0.04, 0.04]) -> (s=0, k=811, n=32, [-0.04, 0.12, 0.12])

Forces in eV/Ang:
  0 Si    0.00002    0.00001    0.00001
  1 Si   -0.00007   -0.00007   -0.00007
  2 Si    0.00004    0.00003   -0.00015
  3 Si    0.00002    0.00002   -0.00004
  4 Si    0.00004   -0.00015    0.00003
  5 Si    0.00002   -0.00004    0.00002
  6 Si    0.00013    0.00003    0.00003
  7 Si    0.00008   -0.00011   -0.00011
  8 Si   -0.00015    0.00003    0.00003
  9 Si   -0.00005    0.00002    0.00002
 10 Si    0.00004    0.00012    0.00003
 11 Si   -0.00011    0.00009   -0.00011
 12 Si    0.00004    0.00003    0.00012
 13 Si   -0.00011   -0.00011    0.00009
 14 Si    0.00002    0.00001    0.00001
 15 Si    0.00006    0.00006    0.00006

Writing ./phonons/ph_Si.eq.pckl
System created
---- Iteration: 1 ---- k=4 ----
Energy: -11.8724 eV ---- Time: 2.03 s
---- Iteration: 2 ---- k=8 ----
Energy: -11.8753 eV ---- Time: 1.88 s
---- Iteration: 3 ---- k=12 ----
Energy: -11.8753 eV ---- Time: 3.45 s
Written to DB
Optimal k-parameter: k=16
Calculator saved
Phononic structure calculation started
System created
---- Iteration: 1 ---- k=4 ----
Energy: -11.8724 eV ---- Time: 2.03 s
---- Iteration: 2 ---- k=8 ----
Energy: -11.8753 eV ---- Time: 1.88 s
---- Iteration: 3 ---- k=12 ----
Energy: -11.8753 eV ---- Time: 3.45 s
Written to DB
Optimal k-parameter: k=16
Calculator saved
Phononic structure calculation started
System created
---- Iteration: 1 ---- k=4 ----
Energy: -11.8724 eV ---- Time: 2.03 s
---- Iteration: 2 ---- k=8 ----
Energy: -11.8753 eV ---- Time: 1.88 s
---- Iteration: 3 ---- k=12 ----
Energy: -11.8753 eV ---- Time: 3.45 s
Written to DB
Optimal k-parameter: k=16
Calculator saved
Phononic structure calculation started
System created
---- Iteration: 1 ---- k=4 ----
Energy: -11.8724 eV ---- Time: 2.03 s
---- Iteration: 2 ---- k=8 ----
Energy: -11.8753 eV ---- Time: 1.88 s
---- Iteration: 3 ---- k=12 ----
Energy: -11.8753 eV ---- Time: 3.45 s
Written to DB
Optimal k-parameter: k=16
Calculator saved
Phononic structure calculation started
System created
---- Iteration: 1 ---- k=4 ----
Energy: -11.8724 eV ---- Time: 2.03 s
---- Iteration: 2 ---- k=8 ----
Energy: -11.8753 eV ---- Time: 1.88 s
---- Iteration: 3 ---- k=12 ----
Energy: -11.8753 eV ---- Time: 3.45 s
Written to DB
Optimal k-parameter: k=16
Calculator saved
Phononic structure calculation started
System created
---- Iteration: 1 ---- k=4 ----
Energy: -11.8724 eV ---- Time: 2.03 s
---- Iteration: 2 ---- k=8 ----
Energy: -11.8753 eV ---- Time: 1.88 s
---- Iteration: 3 ---- k=12 ----
Energy: -11.8753 eV ---- Time: 3.45 s
Written to DB
Optimal k-parameter: k=16
Calculator saved
Phononic structure calculation started
System created
---- Iteration: 1 ---- k=4 ----
Energy: -11.8724 eV ---- Time: 2.03 s
---- Iteration: 2 ---- k=8 ----
Energy: -11.8753 eV ---- Time: 1.88 s
---- Iteration: 3 ---- k=12 ----
Energy: -11.8753 eV ---- Time: 3.45 s
Written to DB
Optimal k-parameter: k=16
Calculator saved
Phononic structure calculation started
System created
---- Iteration: 1 ---- k=4 ----
Energy: -11.8724 eV ---- Time: 2.03 s
---- Iteration: 2 ---- k=8 ----
Energy: -11.8753 eV ---- Time: 1.88 s
---- Iteration: 3 ---- k=12 ----
Energy: -11.8753 eV ---- Time: 3.45 s
Written to DB
Optimal k-parameter: k=16
Calculator saved
Phononic structure calculation started
System created
---- Iteration: 1 ---- k=4 ----
Energy: -11.8724 eV ---- Time: 2.03 s
---- Iteration: 2 ---- k=8 ----
Energy: -11.8753 eV ---- Time: 1.88 s
---- Iteration: 3 ---- k=12 ----
Energy: -11.8753 eV ---- Time: 3.45 s
Written to DB
Optimal k-parameter: k=16
Calculator saved
Phononic structure calculation started
System changes: positions 

Initializing position-dependent things.

Density initialized from wave functions
                                      
                                      
                                      
                                      
                             Si       
                    Si                
                        Si            
                      Si              
                Si                    
             Si   Si       Si         
                                      
         Si       Si   Si             
                    Si                
              Si                      
            Si                        
                Si                    
       Si                             
                                      
                                      
                                      
                                      

Positions:
   0 Si    -0.050000    0.000000    0.000000    ( 0.0000,  0.0000,  0.0000)
   1 Si     1.357500    1.357500    1.357500    ( 0.0000,  0.0000,  0.0000)
   2 Si     2.715000    2.715000    0.000000    ( 0.0000,  0.0000,  0.0000)
   3 Si     4.072500    4.072500    1.357500    ( 0.0000,  0.0000,  0.0000)
   4 Si     2.715000    0.000000    2.715000    ( 0.0000,  0.0000,  0.0000)
   5 Si     4.072500    1.357500    4.072500    ( 0.0000,  0.0000,  0.0000)
   6 Si     5.430000    2.715000    2.715000    ( 0.0000,  0.0000,  0.0000)
   7 Si     6.787500    4.072500    4.072500    ( 0.0000,  0.0000,  0.0000)
   8 Si     0.000000    2.715000    2.715000    ( 0.0000,  0.0000,  0.0000)
   9 Si     1.357500    4.072500    4.072500    ( 0.0000,  0.0000,  0.0000)
  10 Si     2.715000    5.430000    2.715000    ( 0.0000,  0.0000,  0.0000)
  11 Si     4.072500    6.787500    4.072500    ( 0.0000,  0.0000,  0.0000)
  12 Si     2.715000    2.715000    5.430000    ( 0.0000,  0.0000,  0.0000)
  13 Si     4.072500    4.072500    6.787500    ( 0.0000,  0.0000,  0.0000)
  14 Si     5.430000    5.430000    5.430000    ( 0.0000,  0.0000,  0.0000)
  15 Si     6.787500    6.787500    6.787500    ( 0.0000,  0.0000,  0.0000)

Unit cell:
           periodic     x           y           z      points  spacing
  1. axis:    yes    0.000000    5.430000    5.430000    27     0.2322
  2. axis:    yes    5.430000    0.000000    5.430000    27     0.2322
  3. axis:    yes    5.430000    5.430000    0.000000    27     0.2322

  Lengths:   7.679180   7.679180   7.679180
  Angles:   60.000000  60.000000  60.000000

Effective grid spacing dv^(1/3) = 0.2534

                     log10-error:    total        iterations:
           time      wfs    density  energy       fermi  poisson
iter:   1  09:10:46  -3.16   +inf   -94.995803    2             
iter:   2  09:11:17  -5.00  -2.43   -94.993053    1             
iter:   3  09:11:48  -3.45  -2.49   -94.986460    1             
iter:   4  09:12:19  -5.09  -2.72   -94.985790    1             
iter:   5  09:12:49  -4.01  -2.87   -94.987938    1             
iter:   6  09:13:20  -3.97  -2.63   -94.985587    1             
iter:   7  09:13:51  -5.02  -3.12   -94.985443    1             
iter:   8  09:14:22  -5.78  -3.27   -94.985363    1             
iter:   9  09:14:53  -5.40  -3.54   -94.985445    1             
iter:  10  09:15:24  -5.54  -3.23   -94.985327    1             
iter:  11  09:15:55  -6.79  -4.18   -94.985327    1             
iter:  12  09:16:26  -8.59  -4.28   -94.985327    1             

Converged after 12 iterations.

Dipole moment: (-21.823960, -23.409618, -23.409618) |e|*Ang

Energy contributions relative to reference atoms: (reference = -125739.410928)

Kinetic:       +125.354697
Potential:     -110.288061
External:        +0.000000
XC:            -109.678225
Entropy (-ST):   -0.008390
Local:           -0.369544
--------------------------
Free energy:    -94.989522
Extrapolated:   -94.985327

Fermi level: 5.37310

Showing only first 2 kpts
 Kpt  Band  Eigenvalues  Occupancy
  0    30      4.43579    0.00116
  0    31      4.46315    0.00116
  0    32      6.41967    0.00000
  0    33      6.42745    0.00000

  1    30      4.39142    0.00116
  1    31      4.49217    0.00116
  1    32      6.38879    0.00000
  1    33      6.47805    0.00000


Gap: 0.489 eV
Transition (v -> c):
  (s=0, k=942, n=31, [0.04, 0.04, 0.04]) -> (s=0, k=916, n=32, [0.04, -0.12, -0.12])

Forces in eV/Ang:
  0 Si    0.67084    0.00000    0.00000
  1 Si   -0.16865   -0.10518   -0.10518
  2 Si   -0.02300   -0.02465    0.00020
  3 Si   -0.17663   -0.11977    0.11976
  4 Si   -0.02300    0.00020   -0.02465
  5 Si   -0.17662    0.11976   -0.11977
  6 Si    0.04750    0.00000    0.00000
  7 Si    0.00651    0.00531    0.00531
  8 Si    0.04669    0.00000    0.00000
  9 Si   -0.16865    0.10517    0.10517
 10 Si   -0.02300   -0.00020    0.02466
 11 Si    0.00663    0.00559   -0.00560
 12 Si   -0.02300    0.02466   -0.00020
 13 Si    0.00663   -0.00560    0.00559
 14 Si   -0.00854    0.00000    0.00000
 15 Si    0.00651   -0.00532   -0.00532

Writing ./phonons/ph_Si.0x-.pckl
System changes: positions 

Initializing position-dependent things.

Density initialized from wave functions
                                      
                                      
                                      
                                      
                             Si       
                    Si                
                        Si            
                      Si              
                Si                    
             Si   Si       Si         
                                      
         Si       Si   Si             
                    Si                
              Si                      
            Si                        
                Si                    
       Si                             
                                      
                                      
                                      
                                      

Positions:
   0 Si     0.050000    0.000000    0.000000    ( 0.0000,  0.0000,  0.0000)
   1 Si     1.357500    1.357500    1.357500    ( 0.0000,  0.0000,  0.0000)
   2 Si     2.715000    2.715000    0.000000    ( 0.0000,  0.0000,  0.0000)
   3 Si     4.072500    4.072500    1.357500    ( 0.0000,  0.0000,  0.0000)
   4 Si     2.715000    0.000000    2.715000    ( 0.0000,  0.0000,  0.0000)
   5 Si     4.072500    1.357500    4.072500    ( 0.0000,  0.0000,  0.0000)
   6 Si     5.430000    2.715000    2.715000    ( 0.0000,  0.0000,  0.0000)
   7 Si     6.787500    4.072500    4.072500    ( 0.0000,  0.0000,  0.0000)
   8 Si     0.000000    2.715000    2.715000    ( 0.0000,  0.0000,  0.0000)
   9 Si     1.357500    4.072500    4.072500    ( 0.0000,  0.0000,  0.0000)
  10 Si     2.715000    5.430000    2.715000    ( 0.0000,  0.0000,  0.0000)
  11 Si     4.072500    6.787500    4.072500    ( 0.0000,  0.0000,  0.0000)
  12 Si     2.715000    2.715000    5.430000    ( 0.0000,  0.0000,  0.0000)
  13 Si     4.072500    4.072500    6.787500    ( 0.0000,  0.0000,  0.0000)
  14 Si     5.430000    5.430000    5.430000    ( 0.0000,  0.0000,  0.0000)
  15 Si     6.787500    6.787500    6.787500    ( 0.0000,  0.0000,  0.0000)

Unit cell:
           periodic     x           y           z      points  spacing
  1. axis:    yes    0.000000    5.430000    5.430000    27     0.2322
  2. axis:    yes    5.430000    0.000000    5.430000    27     0.2322
  3. axis:    yes    5.430000    5.430000    0.000000    27     0.2322

  Lengths:   7.679180   7.679180   7.679180
  Angles:   60.000000  60.000000  60.000000

Effective grid spacing dv^(1/3) = 0.2534

                     log10-error:    total        iterations:
           time      wfs    density  energy       fermi  poisson
iter:   1  09:17:07  -2.56   +inf   -95.026940    2             
iter:   2  09:17:38  -4.41  -2.13   -95.016008    1             
iter:   3  09:18:09  -2.85  -2.19   -94.989902    1             
iter:   4  09:18:40  -4.47  -2.42   -94.987163    1             
iter:   5  09:19:11  -3.41  -2.57   -94.995731    2             
iter:   6  09:19:42  -3.40  -2.33   -94.986173    1             
iter:   7  09:20:13  -4.49  -2.86   -94.985773    1             
iter:   8  09:20:43  -5.16  -2.96   -94.985440    1             
iter:   9  09:21:15  -4.75  -3.27   -94.985891    1             
iter:  10  09:21:46  -4.86  -2.89   -94.985327    1             
iter:  11  09:22:17  -6.13  -3.88   -94.985331    1             
iter:  12  09:22:48  -7.90  -3.97   -94.985329    1             
iter:  13  09:23:19  -6.57  -4.07   -94.985333    1             
iter:  14  09:23:50  -6.69  -3.90   -94.985328    1             
iter:  15  09:24:20  -7.78  -4.44   -94.985329    1             

Converged after 15 iterations.

Dipole moment: (-24.995683, -23.409530, -23.409530) |e|*Ang

Energy contributions relative to reference atoms: (reference = -125739.410928)

Kinetic:       +125.356125
Potential:     -110.288942
External:        +0.000000
XC:            -109.678382
Entropy (-ST):   -0.008388
Local:           -0.369935
--------------------------
Free energy:    -94.989523
Extrapolated:   -94.985329

Fermi level: 5.37312

Showing only first 2 kpts
 Kpt  Band  Eigenvalues  Occupancy
  0    30      4.44093    0.00116
  0    31      4.47997    0.00116
  0    32      6.42865    0.00000
  0    33      6.45008    0.00000

  1    30      4.38483    0.00116
  1    31      4.52329    0.00116
  1    32      6.39123    0.00000
  1    33      6.49700    0.00000


Gap: 0.473 eV
Transition (v -> c):
  (s=0, k=785, n=31, [-0.04, -0.04, -0.04]) -> (s=0, k=1075, n=32, [0.12, -0.04, 0.12])

Forces in eV/Ang:
  0 Si   -0.66820    0.00000    0.00000
  1 Si    0.17230    0.12028    0.12028
  2 Si    0.02356    0.02885    0.00050
  3 Si    0.16414    0.10541   -0.10541
  4 Si    0.02356    0.00050    0.02885
  5 Si    0.16414   -0.10541    0.10541
  6 Si   -0.04427    0.00000    0.00000
  7 Si   -0.00495   -0.00467   -0.00467
  8 Si   -0.04441    0.00000    0.00000
  9 Si    0.17230   -0.12029   -0.12029
 10 Si    0.02356   -0.00049   -0.02884
 11 Si   -0.00459   -0.00478    0.00477
 12 Si    0.02356   -0.02884   -0.00049
 13 Si   -0.00459    0.00477   -0.00478
 14 Si    0.00970    0.00000    0.00000
 15 Si   -0.00495    0.00466    0.00466

Writing ./phonons/ph_Si.0x+.pckl
System changes: positions 

Initializing position-dependent things.

Density initialized from wave functions
                                      
                                      
                                      
                                      
                             Si       
                    Si                
                        Si            
                      Si              
                Si                    
             Si   Si       Si         
                  Si                  
         Si            Si             
                    Si                
              Si                      
            Si                        
                Si                    
       Si                             
                                      
                                      
                                      
                                      

Positions:
   0 Si     0.000000   -0.050000    0.000000    ( 0.0000,  0.0000,  0.0000)
   1 Si     1.357500    1.357500    1.357500    ( 0.0000,  0.0000,  0.0000)
   2 Si     2.715000    2.715000    0.000000    ( 0.0000,  0.0000,  0.0000)
   3 Si     4.072500    4.072500    1.357500    ( 0.0000,  0.0000,  0.0000)
   4 Si     2.715000    0.000000    2.715000    ( 0.0000,  0.0000,  0.0000)
   5 Si     4.072500    1.357500    4.072500    ( 0.0000,  0.0000,  0.0000)
   6 Si     5.430000    2.715000    2.715000    ( 0.0000,  0.0000,  0.0000)
   7 Si     6.787500    4.072500    4.072500    ( 0.0000,  0.0000,  0.0000)
   8 Si     0.000000    2.715000    2.715000    ( 0.0000,  0.0000,  0.0000)
   9 Si     1.357500    4.072500    4.072500    ( 0.0000,  0.0000,  0.0000)
  10 Si     2.715000    5.430000    2.715000    ( 0.0000,  0.0000,  0.0000)
  11 Si     4.072500    6.787500    4.072500    ( 0.0000,  0.0000,  0.0000)
  12 Si     2.715000    2.715000    5.430000    ( 0.0000,  0.0000,  0.0000)
  13 Si     4.072500    4.072500    6.787500    ( 0.0000,  0.0000,  0.0000)
  14 Si     5.430000    5.430000    5.430000    ( 0.0000,  0.0000,  0.0000)
  15 Si     6.787500    6.787500    6.787500    ( 0.0000,  0.0000,  0.0000)

Unit cell:
           periodic     x           y           z      points  spacing
  1. axis:    yes    0.000000    5.430000    5.430000    27     0.2322
  2. axis:    yes    5.430000    0.000000    5.430000    27     0.2322
  3. axis:    yes    5.430000    5.430000    0.000000    27     0.2322

  Lengths:   7.679180   7.679180   7.679180
  Angles:   60.000000  60.000000  60.000000

Effective grid spacing dv^(1/3) = 0.2534

                     log10-error:    total        iterations:
           time      wfs    density  energy       fermi  poisson
iter:   1  09:25:02  -2.87   +inf   -95.005949    1             
iter:   2  09:25:33  -4.71  -2.31   -95.000546    1             
iter:   3  09:26:04  -3.17  -2.36   -94.987548    1             
iter:   4  09:26:35  -4.73  -2.59   -94.986246    1             
iter:   5  09:27:06  -3.74  -2.74   -94.990395    1             
iter:   6  09:27:37  -3.73  -2.50   -94.985683    1             
iter:   7  09:28:08  -4.94  -3.05   -94.985533    1             
iter:   8  09:28:39  -5.50  -3.09   -94.985344    1             
iter:   9  09:29:10  -4.70  -3.54   -94.985777    1             
iter:  10  09:29:40  -4.98  -2.94   -94.985326    1             
iter:  11  09:30:11  -6.30  -4.04   -94.985329    1             
iter:  12  09:30:42  -7.66  -4.07   -94.985327    1             

Converged after 12 iterations.

Dipole moment: (-23.409407, -21.824276, -23.409626) |e|*Ang

Energy contributions relative to reference atoms: (reference = -125739.410928)

Kinetic:       +125.355750
Potential:     -110.288955
External:        +0.000000
XC:            -109.678316
Entropy (-ST):   -0.008390
Local:           -0.369612
--------------------------
Free energy:    -94.989522
Extrapolated:   -94.985327

Fermi level: 5.37310

Showing only first 2 kpts
 Kpt  Band  Eigenvalues  Occupancy
  0    30      4.43579    0.00116
  0    31      4.46312    0.00116
  0    32      6.41969    0.00000
  0    33      6.42743    0.00000

  1    30      4.39141    0.00116
  1    31      4.49214    0.00116
  1    32      6.38879    0.00000
  1    33      6.47805    0.00000


Gap: 0.489 eV
Transition (v -> c):
  (s=0, k=785, n=31, [-0.04, -0.04, -0.04]) -> (s=0, k=652, n=32, [-0.12, 0.04, -0.12])

Forces in eV/Ang:
  0 Si   -0.00000    0.66922    0.00002
  1 Si   -0.10621   -0.16767   -0.10391
  2 Si   -0.02467   -0.02321    0.00031
  3 Si   -0.12063   -0.17558    0.11822
  4 Si   -0.00048    0.04662    0.00002
  5 Si    0.10324   -0.16932    0.10546
  6 Si    0.00444   -0.02321    0.02411
  7 Si    0.00585    0.00632   -0.00658
  8 Si    0.00490   -0.02321   -0.02418
  9 Si    0.11777   -0.17725   -0.12011
 10 Si   -0.00049    0.04744   -0.00003
 11 Si    0.00562    0.00621    0.00622
 12 Si    0.02347   -0.02342   -0.00008
 13 Si   -0.00605    0.00746    0.00543
 14 Si   -0.00053   -0.00744    0.00002
 15 Si   -0.00576    0.00745   -0.00514

Writing ./phonons/ph_Si.0y-.pckl
System changes: positions 

Initializing position-dependent things.

Density initialized from wave functions
                                      
                                      
                                      
                                      
                             Si       
                    Si                
                        Si            
                      Si              
                Si                    
             Si   Si       Si         
                                      
         Si       Si   Si             
                    Si                
              Si                      
            Si                        
                Si                    
       Si                             
                                      
                                      
                                      
                                      

Positions:
   0 Si     0.000000    0.050000    0.000000    ( 0.0000,  0.0000,  0.0000)
   1 Si     1.357500    1.357500    1.357500    ( 0.0000,  0.0000,  0.0000)
   2 Si     2.715000    2.715000    0.000000    ( 0.0000,  0.0000,  0.0000)
   3 Si     4.072500    4.072500    1.357500    ( 0.0000,  0.0000,  0.0000)
   4 Si     2.715000    0.000000    2.715000    ( 0.0000,  0.0000,  0.0000)
   5 Si     4.072500    1.357500    4.072500    ( 0.0000,  0.0000,  0.0000)
   6 Si     5.430000    2.715000    2.715000    ( 0.0000,  0.0000,  0.0000)
   7 Si     6.787500    4.072500    4.072500    ( 0.0000,  0.0000,  0.0000)
   8 Si     0.000000    2.715000    2.715000    ( 0.0000,  0.0000,  0.0000)
   9 Si     1.357500    4.072500    4.072500    ( 0.0000,  0.0000,  0.0000)
  10 Si     2.715000    5.430000    2.715000    ( 0.0000,  0.0000,  0.0000)
  11 Si     4.072500    6.787500    4.072500    ( 0.0000,  0.0000,  0.0000)
  12 Si     2.715000    2.715000    5.430000    ( 0.0000,  0.0000,  0.0000)
  13 Si     4.072500    4.072500    6.787500    ( 0.0000,  0.0000,  0.0000)
  14 Si     5.430000    5.430000    5.430000    ( 0.0000,  0.0000,  0.0000)
  15 Si     6.787500    6.787500    6.787500    ( 0.0000,  0.0000,  0.0000)

Unit cell:
           periodic     x           y           z      points  spacing
  1. axis:    yes    0.000000    5.430000    5.430000    27     0.2322
  2. axis:    yes    5.430000    0.000000    5.430000    27     0.2322
  3. axis:    yes    5.430000    5.430000    0.000000    27     0.2322

  Lengths:   7.679180   7.679180   7.679180
  Angles:   60.000000  60.000000  60.000000

Effective grid spacing dv^(1/3) = 0.2534

                     log10-error:    total        iterations:
           time      wfs    density  energy       fermi  poisson
iter:   1  09:31:24  -2.56   +inf   -95.027062    2             
iter:   2  09:31:55  -4.41  -2.13   -95.016092    1             
iter:   3  09:32:26  -2.84  -2.19   -94.989984    1             
iter:   4  09:32:57  -4.48  -2.42   -94.987168    1             
iter:   5  09:33:28  -3.39  -2.56   -94.996195    2             
iter:   6  09:33:58  -3.40  -2.32   -94.986036    1             
iter:   7  09:34:29  -4.54  -2.88   -94.985784    1             
iter:   8  09:35:00  -5.11  -2.95   -94.985436    1             
iter:   9  09:35:31  -4.71  -3.28   -94.985974    1             
iter:  10  09:36:02  -4.79  -2.86   -94.985327    1             
iter:  11  09:36:33  -6.09  -3.88   -94.985331    1             
iter:  12  09:37:04  -7.82  -3.95   -94.985329    1             
iter:  13  09:37:35  -6.60  -4.06   -94.985333    1             
iter:  14  09:38:06  -6.60  -3.92   -94.985329    1             
iter:  15  09:38:37  -7.92  -4.29   -94.985329    1             

Converged after 15 iterations.

Dipole moment: (-23.409535, -24.995813, -23.409534) |e|*Ang

Energy contributions relative to reference atoms: (reference = -125739.410928)

Kinetic:       +125.356119
Potential:     -110.288963
External:        +0.000000
XC:            -109.678381
Entropy (-ST):   -0.008388
Local:           -0.369910
--------------------------
Free energy:    -94.989523
Extrapolated:   -94.985329

Fermi level: 5.37312

Showing only first 2 kpts
 Kpt  Band  Eigenvalues  Occupancy
  0    30      4.44093    0.00116
  0    31      4.47997    0.00116
  0    32      6.42864    0.00000
  0    33      6.45008    0.00000

  1    30      4.38483    0.00116
  1    31      4.52329    0.00116
  1    32      6.39123    0.00000
  1    33      6.49700    0.00000


Gap: 0.473 eV
Transition (v -> c):
  (s=0, k=785, n=31, [-0.04, -0.04, -0.04]) -> (s=0, k=1097, n=32, [0.12, 0.12, -0.04])

Forces in eV/Ang:
  0 Si    0.00002   -0.66837    0.00000
  1 Si    0.12039    0.17177    0.12039
  2 Si    0.02956    0.02385    0.00049
  3 Si    0.10548    0.16362   -0.10548
  4 Si   -0.00001   -0.04481   -0.00000
  5 Si   -0.12039    0.17178   -0.12040
  6 Si   -0.00048    0.02385   -0.02956
  7 Si   -0.00433   -0.00420    0.00433
  8 Si    0.00048    0.02385    0.02957
  9 Si   -0.10548    0.16362    0.10549
 10 Si   -0.00000   -0.04465    0.00000
 11 Si   -0.00426   -0.00455   -0.00427
 12 Si   -0.02957    0.02385   -0.00048
 13 Si    0.00432   -0.00421   -0.00433
 14 Si    0.00002    0.01020   -0.00000
 15 Si    0.00426   -0.00455    0.00425

Writing ./phonons/ph_Si.0y+.pckl
System changes: positions 

Initializing position-dependent things.

Density initialized from wave functions
                                      
                                      
                                      
                                      
                             Si       
                    Si                
                        Si            
                      Si              
                Si                    
             Si   Si       Si         
                  Si                  
         Si            Si             
                    Si                
              Si                      
            Si  Si                    
                                      
       Si                             
                                      
                                      
                                      
                                      

Positions:
   0 Si     0.000000    0.000000   -0.050000    ( 0.0000,  0.0000,  0.0000)
   1 Si     1.357500    1.357500    1.357500    ( 0.0000,  0.0000,  0.0000)
   2 Si     2.715000    2.715000    0.000000    ( 0.0000,  0.0000,  0.0000)
   3 Si     4.072500    4.072500    1.357500    ( 0.0000,  0.0000,  0.0000)
   4 Si     2.715000    0.000000    2.715000    ( 0.0000,  0.0000,  0.0000)
   5 Si     4.072500    1.357500    4.072500    ( 0.0000,  0.0000,  0.0000)
   6 Si     5.430000    2.715000    2.715000    ( 0.0000,  0.0000,  0.0000)
   7 Si     6.787500    4.072500    4.072500    ( 0.0000,  0.0000,  0.0000)
   8 Si     0.000000    2.715000    2.715000    ( 0.0000,  0.0000,  0.0000)
   9 Si     1.357500    4.072500    4.072500    ( 0.0000,  0.0000,  0.0000)
  10 Si     2.715000    5.430000    2.715000    ( 0.0000,  0.0000,  0.0000)
  11 Si     4.072500    6.787500    4.072500    ( 0.0000,  0.0000,  0.0000)
  12 Si     2.715000    2.715000    5.430000    ( 0.0000,  0.0000,  0.0000)
  13 Si     4.072500    4.072500    6.787500    ( 0.0000,  0.0000,  0.0000)
  14 Si     5.430000    5.430000    5.430000    ( 0.0000,  0.0000,  0.0000)
  15 Si     6.787500    6.787500    6.787500    ( 0.0000,  0.0000,  0.0000)

Unit cell:
           periodic     x           y           z      points  spacing
  1. axis:    yes    0.000000    5.430000    5.430000    27     0.2322
  2. axis:    yes    5.430000    0.000000    5.430000    27     0.2322
  3. axis:    yes    5.430000    5.430000    0.000000    27     0.2322

  Lengths:   7.679180   7.679180   7.679180
  Angles:   60.000000  60.000000  60.000000

Effective grid spacing dv^(1/3) = 0.2534

                     log10-error:    total        iterations:
           time      wfs    density  energy       fermi  poisson
iter:   1  09:39:18  -2.87   +inf   -95.005886    1             
iter:   2  09:39:49  -4.71  -2.31   -95.000504    1             
iter:   3  09:40:20  -3.17  -2.37   -94.987539    1             
iter:   4  09:40:51  -4.73  -2.59   -94.986245    1             
iter:   5  09:41:22  -3.74  -2.74   -94.990361    1             
iter:   6  09:41:52  -3.73  -2.50   -94.985681    1             
iter:   7  09:42:23  -4.95  -3.05   -94.985534    1             
iter:   8  09:42:54  -5.50  -3.09   -94.985343    1             
iter:   9  09:43:25  -4.71  -3.54   -94.985775    1             
iter:  10  09:43:56  -4.98  -2.95   -94.985326    1             
iter:  11  09:44:26  -6.30  -4.04   -94.985329    1             
iter:  12  09:44:57  -7.67  -4.07   -94.985327    1             

Converged after 12 iterations.

Dipole moment: (-23.409627, -23.409401, -21.824269) |e|*Ang

Energy contributions relative to reference atoms: (reference = -125739.410928)

Kinetic:       +125.355759
Potential:     -110.288962
External:        +0.000000
XC:            -109.678317
Entropy (-ST):   -0.008390
Local:           -0.369612
--------------------------
Free energy:    -94.989522
Extrapolated:   -94.985327

Fermi level: 5.37310

Showing only first 2 kpts
 Kpt  Band  Eigenvalues  Occupancy
  0    30      4.43579    0.00116
  0    31      4.46312    0.00116
  0    32      6.41969    0.00000
  0    33      6.42743    0.00000

  1    30      4.37536    0.00116
  1    31      4.51665    0.00116
  1    32      6.37543    0.00000
  1    33      6.48345    0.00000


Gap: 0.489 eV
Transition (v -> c):
  (s=0, k=785, n=31, [-0.04, -0.04, -0.04]) -> (s=0, k=630, n=32, [-0.12, -0.12, 0.04])

Forces in eV/Ang:
  0 Si    0.00003    0.00005    0.66929
  1 Si   -0.10395   -0.10625   -0.16769
  2 Si   -0.00000   -0.00049    0.04661
  3 Si    0.10548    0.10327   -0.16931
  4 Si   -0.02421    0.00489   -0.02322
  5 Si   -0.12010    0.11779   -0.17722
  6 Si   -0.00006    0.02350   -0.02340
  7 Si    0.00541   -0.00606    0.00745
  8 Si    0.00030   -0.02469   -0.02324
  9 Si    0.11825   -0.12064   -0.17558
 10 Si    0.02413    0.00447   -0.02320
 11 Si   -0.00659    0.00583    0.00630
 12 Si   -0.00001   -0.00047    0.04746
 13 Si    0.00621    0.00559    0.00619
 14 Si    0.00001   -0.00056   -0.00747
 15 Si   -0.00512   -0.00574    0.00746

Writing ./phonons/ph_Si.0z-.pckl
System changes: positions 

Initializing position-dependent things.

Density initialized from wave functions
                                      
                                      
                                      
                                      
                             Si       
                    Si                
                        Si            
                      Si              
                Si                    
             Si   Si       Si         
                                      
         Si       Si   Si             
                    Si                
              Si                      
            Si                        
                Si                    
       Si                             
                                      
                                      
                                      
                                      

Positions:
   0 Si     0.000000    0.000000    0.050000    ( 0.0000,  0.0000,  0.0000)
   1 Si     1.357500    1.357500    1.357500    ( 0.0000,  0.0000,  0.0000)
   2 Si     2.715000    2.715000    0.000000    ( 0.0000,  0.0000,  0.0000)
   3 Si     4.072500    4.072500    1.357500    ( 0.0000,  0.0000,  0.0000)
   4 Si     2.715000    0.000000    2.715000    ( 0.0000,  0.0000,  0.0000)
   5 Si     4.072500    1.357500    4.072500    ( 0.0000,  0.0000,  0.0000)
   6 Si     5.430000    2.715000    2.715000    ( 0.0000,  0.0000,  0.0000)
   7 Si     6.787500    4.072500    4.072500    ( 0.0000,  0.0000,  0.0000)
   8 Si     0.000000    2.715000    2.715000    ( 0.0000,  0.0000,  0.0000)
   9 Si     1.357500    4.072500    4.072500    ( 0.0000,  0.0000,  0.0000)
  10 Si     2.715000    5.430000    2.715000    ( 0.0000,  0.0000,  0.0000)
  11 Si     4.072500    6.787500    4.072500    ( 0.0000,  0.0000,  0.0000)
  12 Si     2.715000    2.715000    5.430000    ( 0.0000,  0.0000,  0.0000)
  13 Si     4.072500    4.072500    6.787500    ( 0.0000,  0.0000,  0.0000)
  14 Si     5.430000    5.430000    5.430000    ( 0.0000,  0.0000,  0.0000)
  15 Si     6.787500    6.787500    6.787500    ( 0.0000,  0.0000,  0.0000)

Unit cell:
           periodic     x           y           z      points  spacing
  1. axis:    yes    0.000000    5.430000    5.430000    27     0.2322
  2. axis:    yes    5.430000    0.000000    5.430000    27     0.2322
  3. axis:    yes    5.430000    5.430000    0.000000    27     0.2322

  Lengths:   7.679180   7.679180   7.679180
  Angles:   60.000000  60.000000  60.000000

Effective grid spacing dv^(1/3) = 0.2534

                     log10-error:    total        iterations:
           time      wfs    density  energy       fermi  poisson
iter:   1  09:45:39  -2.56   +inf   -95.027056    2             
iter:   2  09:46:11  -4.41  -2.13   -95.016088    1             
iter:   3  09:46:41  -2.84  -2.19   -94.989991    1             
iter:   4  09:47:12  -4.48  -2.42   -94.987168    1             
iter:   5  09:47:43  -3.38  -2.56   -94.996220    2             
iter:   6  09:48:14  -3.40  -2.32   -94.986025    1             
iter:   7  09:48:45  -4.54  -2.88   -94.985786    1             
iter:   8  09:49:16  -5.11  -2.95   -94.985436    1             
iter:   9  09:49:47  -4.71  -3.28   -94.985979    1             
iter:  10  09:50:17  -4.79  -2.86   -94.985327    1             
iter:  11  09:50:48  -6.09  -3.88   -94.985331    1             
iter:  12  09:51:19  -7.82  -3.95   -94.985329    1             
iter:  13  09:51:50  -6.60  -4.06   -94.985333    1             
iter:  14  09:52:20  -6.60  -3.92   -94.985329    1             
iter:  15  09:52:51  -7.92  -4.28   -94.985329    1             

Converged after 15 iterations.

Dipole moment: (-23.409534, -23.409535, -24.995821) |e|*Ang

Energy contributions relative to reference atoms: (reference = -125739.410928)

Kinetic:       +125.356115
Potential:     -110.288960
External:        +0.000000
XC:            -109.678380
Entropy (-ST):   -0.008388
Local:           -0.369909
--------------------------
Free energy:    -94.989523
Extrapolated:   -94.985329

Fermi level: 5.37312

Showing only first 2 kpts
 Kpt  Band  Eigenvalues  Occupancy
  0    30      4.44093    0.00116
  0    31      4.47997    0.00116
  0    32      6.42864    0.00000
  0    33      6.45008    0.00000

  1    30      4.42012    0.00116
  1    31      4.49229    0.00116
  1    32      6.40548    0.00000
  1    33      6.48492    0.00000


Gap: 0.473 eV
Transition (v -> c):
  (s=0, k=785, n=31, [-0.04, -0.04, -0.04]) -> (s=0, k=916, n=32, [0.04, -0.12, -0.12])

Forces in eV/Ang:
  0 Si    0.00001    0.00002   -0.66840
  1 Si    0.12040    0.12040    0.17174
  2 Si   -0.00000   -0.00001   -0.04483
  3 Si   -0.12041   -0.12040    0.17176
  4 Si    0.02961    0.00048    0.02386
  5 Si    0.10550   -0.10549    0.16361
  6 Si   -0.00047   -0.02961    0.02387
  7 Si   -0.00432    0.00431   -0.00420
  8 Si    0.00048    0.02960    0.02387
  9 Si   -0.10549    0.10550    0.16360
 10 Si   -0.02960   -0.00048    0.02387
 11 Si    0.00431   -0.00432   -0.00419
 12 Si    0.00001   -0.00000   -0.04466
 13 Si   -0.00425   -0.00425   -0.00453
 14 Si   -0.00000    0.00002    0.01021
 15 Si    0.00424    0.00424   -0.00453

Writing ./phonons/ph_Si.0z+.pckl
System changes: positions 

Initializing position-dependent things.

Density initialized from wave functions
                                      
                                      
                                      
                                      
                             Si       
                    Si                
                        Si            
                      Si              
                Si                    
             Si   Si       Si         
                                      
         Si       Si   Si             
                    Si                
              Si                      
           Si                         
                Si                    
       Si                             
                                      
                                      
                                      
                                      

Positions:
   0 Si     0.000000    0.000000    0.000000    ( 0.0000,  0.0000,  0.0000)
   1 Si     1.307500    1.357500    1.357500    ( 0.0000,  0.0000,  0.0000)
   2 Si     2.715000    2.715000    0.000000    ( 0.0000,  0.0000,  0.0000)
   3 Si     4.072500    4.072500    1.357500    ( 0.0000,  0.0000,  0.0000)
   4 Si     2.715000    0.000000    2.715000    ( 0.0000,  0.0000,  0.0000)
   5 Si     4.072500    1.357500    4.072500    ( 0.0000,  0.0000,  0.0000)
   6 Si     5.430000    2.715000    2.715000    ( 0.0000,  0.0000,  0.0000)
   7 Si     6.787500    4.072500    4.072500    ( 0.0000,  0.0000,  0.0000)
   8 Si     0.000000    2.715000    2.715000    ( 0.0000,  0.0000,  0.0000)
   9 Si     1.357500    4.072500    4.072500    ( 0.0000,  0.0000,  0.0000)
  10 Si     2.715000    5.430000    2.715000    ( 0.0000,  0.0000,  0.0000)
  11 Si     4.072500    6.787500    4.072500    ( 0.0000,  0.0000,  0.0000)
  12 Si     2.715000    2.715000    5.430000    ( 0.0000,  0.0000,  0.0000)
  13 Si     4.072500    4.072500    6.787500    ( 0.0000,  0.0000,  0.0000)
  14 Si     5.430000    5.430000    5.430000    ( 0.0000,  0.0000,  0.0000)
  15 Si     6.787500    6.787500    6.787500    ( 0.0000,  0.0000,  0.0000)

Unit cell:
           periodic     x           y           z      points  spacing
  1. axis:    yes    0.000000    5.430000    5.430000    27     0.2322
  2. axis:    yes    5.430000    0.000000    5.430000    27     0.2322
  3. axis:    yes    5.430000    5.430000    0.000000    27     0.2322

  Lengths:   7.679180   7.679180   7.679180
  Angles:   60.000000  60.000000  60.000000

Effective grid spacing dv^(1/3) = 0.2534

                     log10-error:    total        iterations:
           time      wfs    density  energy       fermi  poisson
iter:   1  09:53:33  -2.84   +inf   -95.003252    2             
iter:   2  09:54:03  -4.68  -2.27   -94.998799    1             
iter:   3  09:54:34  -3.22  -2.31   -94.987210    2             
iter:   4  09:55:05  -4.78  -2.62   -94.986013    2             
iter:   5  09:55:36  -3.90  -2.76   -94.988997    1             
iter:   6  09:56:06  -3.68  -2.54   -94.986416    2             
iter:   7  09:56:37  -4.54  -2.82   -94.985465    2             
iter:   8  09:57:08  -5.65  -3.22   -94.985378    1             
iter:   9  09:57:39  -5.40  -3.43   -94.985383    1             
iter:  10  09:58:09  -5.88  -3.37   -94.985330    1             
iter:  11  09:58:40  -7.04  -4.04   -94.985329    1             
iter:  12  09:59:11  -8.54  -4.16   -94.985328    1             

Converged after 12 iterations.

Dipole moment: (-23.856691, -23.415833, -23.415368) |e|*Ang

Energy contributions relative to reference atoms: (reference = -125739.410928)

Kinetic:       +125.355546
Potential:     -110.288714
External:        +0.000000
XC:            -109.678290
Entropy (-ST):   -0.008388
Local:           -0.369676
--------------------------
Free energy:    -94.989522
Extrapolated:   -94.985328

Fermi level: 5.37313

Showing only first 2 kpts
 Kpt  Band  Eigenvalues  Occupancy
  0    30      4.44087    0.00116
  0    31      4.48001    0.00116
  0    32      6.42861    0.00000
  0    33      6.45009    0.00000

  1    30      4.38475    0.00116
  1    31      4.52337    0.00116
  1    32      6.39120    0.00000
  1    33      6.49701    0.00000


Gap: 0.473 eV
Transition (v -> c):
  (s=0, k=942, n=31, [0.04, 0.04, 0.04]) -> (s=0, k=630, n=32, [-0.12, -0.12, 0.04])

Forces in eV/Ang:
  0 Si   -0.17670   -0.11972   -0.11830
  1 Si    0.67103    0.00050   -0.00172
  2 Si   -0.16863   -0.10513    0.11002
  3 Si   -0.02357   -0.02491   -0.00179
  4 Si   -0.16875    0.10499   -0.10538
  5 Si   -0.02261   -0.00073   -0.02609
  6 Si    0.00673    0.00606    0.00534
  7 Si    0.04600    0.00088   -0.00030
  8 Si   -0.17646    0.11946    0.11926
  9 Si    0.04721    0.00031   -0.00174
 10 Si    0.00687    0.00542   -0.00591
 11 Si   -0.02240   -0.00046    0.02432
 12 Si    0.00657   -0.00530    0.01013
 13 Si   -0.02388    0.02381   -0.00001
 14 Si    0.00674   -0.00573   -0.00682
 15 Si   -0.00738    0.00075   -0.00023

Writing ./phonons/ph_Si.1x-.pckl
System changes: positions 

Initializing position-dependent things.

Density initialized from wave functions
                                      
                                      
                                      
                                      
                             Si       
                    Si                
                        Si            
                      Si              
                Si                    
             Si   Si       Si         
                                      
         Si       Si   Si             
                    Si                
              Si                      
            Si                        
                Si                    
       Si                             
                                      
                                      
                                      
                                      

Positions:
   0 Si     0.000000    0.000000    0.000000    ( 0.0000,  0.0000,  0.0000)
   1 Si     1.407500    1.357500    1.357500    ( 0.0000,  0.0000,  0.0000)
   2 Si     2.715000    2.715000    0.000000    ( 0.0000,  0.0000,  0.0000)
   3 Si     4.072500    4.072500    1.357500    ( 0.0000,  0.0000,  0.0000)
   4 Si     2.715000    0.000000    2.715000    ( 0.0000,  0.0000,  0.0000)
   5 Si     4.072500    1.357500    4.072500    ( 0.0000,  0.0000,  0.0000)
   6 Si     5.430000    2.715000    2.715000    ( 0.0000,  0.0000,  0.0000)
   7 Si     6.787500    4.072500    4.072500    ( 0.0000,  0.0000,  0.0000)
   8 Si     0.000000    2.715000    2.715000    ( 0.0000,  0.0000,  0.0000)
   9 Si     1.357500    4.072500    4.072500    ( 0.0000,  0.0000,  0.0000)
  10 Si     2.715000    5.430000    2.715000    ( 0.0000,  0.0000,  0.0000)
  11 Si     4.072500    6.787500    4.072500    ( 0.0000,  0.0000,  0.0000)
  12 Si     2.715000    2.715000    5.430000    ( 0.0000,  0.0000,  0.0000)
  13 Si     4.072500    4.072500    6.787500    ( 0.0000,  0.0000,  0.0000)
  14 Si     5.430000    5.430000    5.430000    ( 0.0000,  0.0000,  0.0000)
  15 Si     6.787500    6.787500    6.787500    ( 0.0000,  0.0000,  0.0000)

Unit cell:
           periodic     x           y           z      points  spacing
  1. axis:    yes    0.000000    5.430000    5.430000    27     0.2322
  2. axis:    yes    5.430000    0.000000    5.430000    27     0.2322
  3. axis:    yes    5.430000    5.430000    0.000000    27     0.2322

  Lengths:   7.679180   7.679180   7.679180
  Angles:   60.000000  60.000000  60.000000

Effective grid spacing dv^(1/3) = 0.2534

                     log10-error:    total        iterations:
           time      wfs    density  energy       fermi  poisson
iter:   1  09:59:53  -2.56   +inf   -95.026978    2             
iter:   2  10:00:23  -4.41  -2.13   -95.016033    1             
iter:   3  10:00:54  -2.85  -2.19   -94.989960    1             
iter:   4  10:01:25  -4.48  -2.42   -94.987163    1             
iter:   5  10:01:56  -3.39  -2.57   -94.996114    2             
iter:   6  10:02:26  -3.41  -2.32   -94.986016    1             
iter:   7  10:02:57  -4.54  -2.88   -94.985787    1             
iter:   8  10:03:28  -5.11  -2.95   -94.985440    1             
iter:   9  10:03:59  -4.71  -3.27   -94.985972    1             
iter:  10  10:04:30  -4.79  -2.86   -94.985326    1             
iter:  11  10:05:01  -6.09  -3.88   -94.985330    1             
iter:  12  10:05:32  -7.82  -3.95   -94.985328    1             
iter:  13  10:06:02  -6.61  -4.06   -94.985332    1             
iter:  14  10:06:33  -6.65  -3.93   -94.985328    1             
iter:  15  10:07:04  -7.96  -4.32   -94.985328    1             

Converged after 15 iterations.

Dipole moment: (-22.976204, -23.415909, -23.415907) |e|*Ang

Energy contributions relative to reference atoms: (reference = -125739.410928)

Kinetic:       +125.356122
Potential:     -110.288976
External:        +0.000000
XC:            -109.678383
Entropy (-ST):   -0.008389
Local:           -0.369896
--------------------------
Free energy:    -94.989523
Extrapolated:   -94.985328

Fermi level: 5.37310

Showing only first 2 kpts
 Kpt  Band  Eigenvalues  Occupancy
  0    30      4.43588    0.00116
  0    31      4.46311    0.00116
  0    32      6.41970    0.00000
  0    33      6.42748    0.00000

  1    30      4.39143    0.00116
  1    31      4.49221    0.00116
  1    32      6.38880    0.00000
  1    33      6.47810    0.00000


Gap: 0.489 eV
Transition (v -> c):
  (s=0, k=785, n=31, [-0.04, -0.04, -0.04]) -> (s=0, k=916, n=32, [0.04, -0.12, -0.12])

Forces in eV/Ang:
  0 Si    0.16381    0.10531    0.10533
  1 Si   -0.66806   -0.00001    0.00001
  2 Si    0.17196    0.12021   -0.12020
  3 Si    0.02389    0.02921   -0.00047
  4 Si    0.17195   -0.12020    0.12020
  5 Si    0.02387   -0.00047    0.02921
  6 Si   -0.00440   -0.00455   -0.00457
  7 Si   -0.04479   -0.00000   -0.00000
  8 Si    0.16382   -0.10531   -0.10531
  9 Si   -0.04462   -0.00002   -0.00000
 10 Si   -0.00473   -0.00448    0.00447
 11 Si    0.02389    0.00048   -0.02921
 12 Si   -0.00474    0.00448   -0.00449
 13 Si    0.02389   -0.02921    0.00047
 14 Si   -0.00439    0.00457    0.00458
 15 Si    0.00972   -0.00001   -0.00001

Writing ./phonons/ph_Si.1x+.pckl
System changes: positions 

Initializing position-dependent things.

Density initialized from wave functions
                                      
                                      
                                      
                                      
                             Si       
                    Si                
                        Si            
                      Si              
                Si                    
             Si   Si       Si         
                                      
         Si       Si   Si             
                    Si                
              Si                      
            Si                        
                Si                    
       Si                             
                                      
                                      
                                      
                                      

Positions:
   0 Si     0.000000    0.000000    0.000000    ( 0.0000,  0.0000,  0.0000)
   1 Si     1.357500    1.307500    1.357500    ( 0.0000,  0.0000,  0.0000)
   2 Si     2.715000    2.715000    0.000000    ( 0.0000,  0.0000,  0.0000)
   3 Si     4.072500    4.072500    1.357500    ( 0.0000,  0.0000,  0.0000)
   4 Si     2.715000    0.000000    2.715000    ( 0.0000,  0.0000,  0.0000)
   5 Si     4.072500    1.357500    4.072500    ( 0.0000,  0.0000,  0.0000)
   6 Si     5.430000    2.715000    2.715000    ( 0.0000,  0.0000,  0.0000)
   7 Si     6.787500    4.072500    4.072500    ( 0.0000,  0.0000,  0.0000)
   8 Si     0.000000    2.715000    2.715000    ( 0.0000,  0.0000,  0.0000)
   9 Si     1.357500    4.072500    4.072500    ( 0.0000,  0.0000,  0.0000)
  10 Si     2.715000    5.430000    2.715000    ( 0.0000,  0.0000,  0.0000)
  11 Si     4.072500    6.787500    4.072500    ( 0.0000,  0.0000,  0.0000)
  12 Si     2.715000    2.715000    5.430000    ( 0.0000,  0.0000,  0.0000)
  13 Si     4.072500    4.072500    6.787500    ( 0.0000,  0.0000,  0.0000)
  14 Si     5.430000    5.430000    5.430000    ( 0.0000,  0.0000,  0.0000)
  15 Si     6.787500    6.787500    6.787500    ( 0.0000,  0.0000,  0.0000)

Unit cell:
           periodic     x           y           z      points  spacing
  1. axis:    yes    0.000000    5.430000    5.430000    27     0.2322
  2. axis:    yes    5.430000    0.000000    5.430000    27     0.2322
  3. axis:    yes    5.430000    5.430000    0.000000    27     0.2322

  Lengths:   7.679180   7.679180   7.679180
  Angles:   60.000000  60.000000  60.000000

Effective grid spacing dv^(1/3) = 0.2534

                     log10-error:    total        iterations:
           time      wfs    density  energy       fermi  poisson
iter:   1  10:07:46  -2.87   +inf   -95.005912    1             
iter:   2  10:08:16  -4.71  -2.31   -95.000521    1             
iter:   3  10:08:47  -3.17  -2.36   -94.987549    1             
iter:   4  10:09:18  -4.74  -2.59   -94.986246    1             
iter:   5  10:09:49  -3.73  -2.74   -94.990444    2             
iter:   6  10:10:20  -3.73  -2.49   -94.985689    1             
iter:   7  10:10:50  -4.94  -3.05   -94.985538    1             
iter:   8  10:11:21  -5.49  -3.09   -94.985345    1             
iter:   9  10:11:52  -4.70  -3.54   -94.985780    1             
iter:  10  10:12:23  -4.97  -2.94   -94.985327    1             
iter:  11  10:12:54  -6.30  -4.04   -94.985330    1             
iter:  12  10:13:25  -7.67  -4.07   -94.985328    1             

Converged after 12 iterations.

Dipole moment: (-23.416198, -23.856757, -23.415787) |e|*Ang

Energy contributions relative to reference atoms: (reference = -125739.410928)

Kinetic:       +125.355748
Potential:     -110.288957
External:        +0.000000
XC:            -109.678314
Entropy (-ST):   -0.008388
Local:           -0.369610
--------------------------
Free energy:    -94.989522
Extrapolated:   -94.985328

Fermi level: 5.37313

Showing only first 2 kpts
 Kpt  Band  Eigenvalues  Occupancy
  0    30      4.44093    0.00116
  0    31      4.47999    0.00116
  0    32      6.42866    0.00000
  0    33      6.45014    0.00000

  1    30      4.38479    0.00116
  1    31      4.52336    0.00116
  1    32      6.39125    0.00000
  1    33      6.49704    0.00000


Gap: 0.473 eV
Transition (v -> c):
  (s=0, k=942, n=31, [0.04, 0.04, 0.04]) -> (s=0, k=1097, n=32, [0.12, 0.12, -0.04])

Forces in eV/Ang:
  0 Si   -0.12067   -0.17561   -0.11826
  1 Si    0.00004    0.66928    0.00001
  2 Si   -0.10619   -0.16763    0.10395
  3 Si   -0.02471   -0.02325   -0.00036
  4 Si    0.11781   -0.17721    0.12015
  5 Si   -0.00053    0.04740   -0.00000
  6 Si    0.00560    0.00618   -0.00625
  7 Si    0.00494   -0.02319    0.02422
  8 Si    0.10328   -0.16928   -0.10544
  9 Si    0.00440   -0.02325   -0.02415
 10 Si    0.00582    0.00630    0.00655
 11 Si   -0.00046    0.04665    0.00002
 12 Si   -0.00578    0.00742    0.00511
 13 Si    0.02350   -0.02340    0.00011
 14 Si   -0.00600    0.00750   -0.00540
 15 Si   -0.00057   -0.00748   -0.00005

Writing ./phonons/ph_Si.1y-.pckl
System changes: positions 

Initializing position-dependent things.

Density initialized from wave functions
                                      
                                      
                                      
                                      
                             Si       
                    Si                
                        Si            
                      Si              
                Si                    
             Si   Si       Si         
                                      
         Si       Si   Si             
                    Si                
              Si                      
            Si                        
                Si                    
       Si                             
                                      
                                      
                                      
                                      

Positions:
   0 Si     0.000000    0.000000    0.000000    ( 0.0000,  0.0000,  0.0000)
   1 Si     1.357500    1.407500    1.357500    ( 0.0000,  0.0000,  0.0000)
   2 Si     2.715000    2.715000    0.000000    ( 0.0000,  0.0000,  0.0000)
   3 Si     4.072500    4.072500    1.357500    ( 0.0000,  0.0000,  0.0000)
   4 Si     2.715000    0.000000    2.715000    ( 0.0000,  0.0000,  0.0000)
   5 Si     4.072500    1.357500    4.072500    ( 0.0000,  0.0000,  0.0000)
   6 Si     5.430000    2.715000    2.715000    ( 0.0000,  0.0000,  0.0000)
   7 Si     6.787500    4.072500    4.072500    ( 0.0000,  0.0000,  0.0000)
   8 Si     0.000000    2.715000    2.715000    ( 0.0000,  0.0000,  0.0000)
   9 Si     1.357500    4.072500    4.072500    ( 0.0000,  0.0000,  0.0000)
  10 Si     2.715000    5.430000    2.715000    ( 0.0000,  0.0000,  0.0000)
  11 Si     4.072500    6.787500    4.072500    ( 0.0000,  0.0000,  0.0000)
[...]
WARNING, 1 imaginary frequencies at q = (-0.03,  0.18,  0.03) ; (omega_q = 2.668e-02*i)
WARNING, 1 imaginary frequencies at q = ( 0.03, -0.17, -0.03) ; (omega_q = 2.668e-02*i)
WARNING, 1 imaginary frequencies at q = ( 0.03, -0.12, -0.03) ; (omega_q = 6.299e-02*i)
WARNING, 1 imaginary frequencies at q = ( 0.03, -0.12,  0.03) ; (omega_q = 4.305e-02*i)
WARNING, 1 imaginary frequencies at q = ( 0.03, -0.08, -0.17) ; (omega_q = 3.104e-02*i)
WARNING, 1 imaginary frequencies at q = ( 0.03, -0.08, -0.12) ; (omega_q = 6.709e-02*i)
WARNING, 1 imaginary frequencies at q = ( 0.03, -0.08, -0.08) ; (omega_q = 7.299e-02*i)
WARNING, 1 imaginary frequencies at q = ( 0.03, -0.08, -0.03) ; (omega_q = 7.335e-02*i)
WARNING, 1 imaginary frequencies at q = ( 0.03, -0.08,  0.03) ; (omega_q = 7.015e-02*i)
WARNING, 1 imaginary frequencies at q = ( 0.03, -0.03, -0.22) ; (omega_q = 2.995e-02*i)
WARNING, 1 imaginary frequencies at q = ( 0.03, -0.03, -0.17) ; (omega_q = 8.561e-02*i)
WARNING, 1 imaginary frequencies at q = ( 0.03, -0.03, -0.12) ; (omega_q = 1.046e-01*i)
WARNING, 1 imaginary frequencies at q = ( 0.03, -0.03, -0.08) ; (omega_q = 1.052e-01*i)
WARNING, 1 imaginary frequencies at q = ( 0.03, -0.03, -0.03) ; (omega_q = 8.634e-02*i)
WARNING, 1 imaginary frequencies at q = ( 0.03, -0.03,  0.03) ; (omega_q = 7.663e-02*i)
WARNING, 1 imaginary frequencies at q = ( 0.03, -0.03,  0.07) ; (omega_q = 7.508e-02*i)
WARNING, 1 imaginary frequencies at q = ( 0.03, -0.03,  0.12) ; (omega_q = 4.759e-02*i)
WARNING, 1 imaginary frequencies at q = ( 0.03,  0.03, -0.17) ; (omega_q = 6.195e-02*i)
WARNING, 1 imaginary frequencies at q = ( 0.03,  0.03, -0.12) ; (omega_q = 9.083e-02*i)
WARNING, 1 imaginary frequencies at q = ( 0.03,  0.03, -0.08) ; (omega_q = 9.882e-02*i)
WARNING, 1 imaginary frequencies at q = ( 0.03,  0.03, -0.03) ; (omega_q = 8.645e-02*i)
WARNING, 1 imaginary frequencies at q = ( 0.03,  0.03,  0.03) ; (omega_q = 6.787e-02*i)
WARNING, 1 imaginary frequencies at q = ( 0.03,  0.03,  0.07) ; (omega_q = 8.227e-02*i)
WARNING, 1 imaginary frequencies at q = ( 0.03,  0.03,  0.12) ; (omega_q = 7.955e-02*i)
WARNING, 1 imaginary frequencies at q = ( 0.03,  0.03,  0.18) ; (omega_q = 5.666e-02*i)
WARNING, 1 imaginary frequencies at q = ( 0.03,  0.07, -0.08) ; (omega_q = 2.925e-02*i)
WARNING, 1 imaginary frequencies at q = ( 0.03,  0.07, -0.03) ; (omega_q = 7.418e-02*i)
WARNING, 1 imaginary frequencies at q = ( 0.03,  0.07,  0.03) ; (omega_q = 8.988e-02*i)
WARNING, 1 imaginary frequencies at q = ( 0.03,  0.07,  0.07) ; (omega_q = 7.883e-02*i)
WARNING, 1 imaginary frequencies at q = ( 0.03,  0.07,  0.12) ; (omega_q = 6.012e-02*i)
WARNING, 1 imaginary frequencies at q = ( 0.03,  0.07,  0.18) ; (omega_q = 1.984e-02*i)
WARNING, 1 imaginary frequencies at q = ( 0.03,  0.12, -0.03) ; (omega_q = 6.391e-02*i)
WARNING, 1 imaginary frequencies at q = ( 0.03,  0.12,  0.03) ; (omega_q = 9.569e-02*i)
WARNING, 1 imaginary frequencies at q = ( 0.03,  0.12,  0.07) ; (omega_q = 7.815e-02*i)
WARNING, 1 imaginary frequencies at q = ( 0.03,  0.12,  0.12) ; (omega_q = 8.154e-03*i)
WARNING, 1 imaginary frequencies at q = ( 0.03,  0.18, -0.03) ; (omega_q = 2.842e-02*i)
WARNING, 1 imaginary frequencies at q = ( 0.03,  0.18,  0.03) ; (omega_q = 8.100e-02*i)
WARNING, 1 imaginary frequencies at q = ( 0.03,  0.18,  0.07) ; (omega_q = 5.926e-02*i)
WARNING, 1 imaginary frequencies at q = ( 0.03,  0.22,  0.03) ; (omega_q = 2.985e-02*i)
WARNING, 1 imaginary frequencies at q = ( 0.07, -0.08, -0.12) ; (omega_q = 5.380e-02*i)
WARNING, 1 imaginary frequencies at q = ( 0.07, -0.08, -0.08) ; (omega_q = 5.993e-02*i)
WARNING, 1 imaginary frequencies at q = ( 0.07, -0.08, -0.03) ; (omega_q = 3.231e-02*i)
WARNING, 1 imaginary frequencies at q = ( 0.07, -0.03, -0.22) ; (omega_q = 2.934e-02*i)
WARNING, 1 imaginary frequencies at q = ( 0.07, -0.03, -0.17) ; (omega_q = 8.895e-02*i)
WARNING, 1 imaginary frequencies at q = ( 0.07, -0.03, -0.12) ; (omega_q = 1.101e-01*i)
WARNING, 1 imaginary frequencies at q = ( 0.07, -0.03, -0.08) ; (omega_q = 1.134e-01*i)
WARNING, 1 imaginary frequencies at q = ( 0.07, -0.03, -0.03) ; (omega_q = 9.942e-02*i)
WARNING, 1 imaginary frequencies at q = ( 0.07, -0.03,  0.03) ; (omega_q = 7.587e-02*i)
WARNING, 1 imaginary frequencies at q = ( 0.07, -0.03,  0.07) ; (omega_q = 6.293e-02*i)
WARNING, 1 imaginary frequencies at q = ( 0.07,  0.03, -0.17) ; (omega_q = 7.817e-02*i)
WARNING, 1 imaginary frequencies at q = ( 0.07,  0.03, -0.12) ; (omega_q = 1.046e-01*i)
WARNING, 1 imaginary frequencies at q = ( 0.07,  0.03, -0.08) ; (omega_q = 1.131e-01*i)
WARNING, 1 imaginary frequencies at q = ( 0.07,  0.03, -0.03) ; (omega_q = 1.054e-01*i)
WARNING, 1 imaginary frequencies at q = ( 0.07,  0.03,  0.03) ; (omega_q = 8.290e-02*i)
WARNING, 1 imaginary frequencies at q = ( 0.07,  0.03,  0.07) ; (omega_q = 7.741e-02*i)
WARNING, 1 imaginary frequencies at q = ( 0.07,  0.03,  0.12) ; (omega_q = 5.393e-02*i)
WARNING, 1 imaginary frequencies at q = ( 0.07,  0.07, -0.08) ; (omega_q = 5.872e-02*i)
WARNING, 1 imaginary frequencies at q = ( 0.07,  0.07, -0.03) ; (omega_q = 7.334e-02*i)
WARNING, 1 imaginary frequencies at q = ( 0.07,  0.07,  0.03) ; (omega_q = 7.993e-02*i)
WARNING, 1 imaginary frequencies at q = ( 0.07,  0.07,  0.07) ; (omega_q = 7.052e-02*i)
WARNING, 1 imaginary frequencies at q = ( 0.07,  0.07,  0.12) ; (omega_q = 3.237e-02*i)
WARNING, 1 imaginary frequencies at q = ( 0.07,  0.12,  0.03) ; (omega_q = 7.940e-02*i)
WARNING, 1 imaginary frequencies at q = ( 0.07,  0.12,  0.07) ; (omega_q = 7.343e-02*i)
WARNING, 1 imaginary frequencies at q = ( 0.07,  0.18,  0.03) ; (omega_q = 6.088e-02*i)
WARNING, 1 imaginary frequencies at q = ( 0.07,  0.18,  0.07) ; (omega_q = 5.856e-02*i)
WARNING, 1 imaginary frequencies at q = ( 0.12, -0.08, -0.08) ; (omega_q = 1.436e-02*i)
WARNING, 1 imaginary frequencies at q = ( 0.12, -0.03, -0.17) ; (omega_q = 7.440e-02*i)
WARNING, 1 imaginary frequencies at q = ( 0.12, -0.03, -0.12) ; (omega_q = 9.978e-02*i)
WARNING, 1 imaginary frequencies at q = ( 0.12, -0.03, -0.08) ; (omega_q = 1.051e-01*i)
WARNING, 1 imaginary frequencies at q = ( 0.12, -0.03, -0.03) ; (omega_q = 9.191e-02*i)
WARNING, 1 imaginary frequencies at q = ( 0.12, -0.03,  0.03) ; (omega_q = 5.057e-02*i)
WARNING, 1 imaginary frequencies at q = ( 0.12,  0.03, -0.17) ; (omega_q = 7.029e-02*i)
WARNING, 1 imaginary frequencies at q = ( 0.12,  0.03, -0.12) ; (omega_q = 9.958e-02*i)
WARNING, 1 imaginary frequencies at q = ( 0.12,  0.03, -0.08) ; (omega_q = 1.101e-01*i)
WARNING, 1 imaginary frequencies at q = ( 0.12,  0.03, -0.03) ; (omega_q = 1.050e-01*i)
WARNING, 1 imaginary frequencies at q = ( 0.12,  0.03,  0.03) ; (omega_q = 8.053e-02*i)
WARNING, 1 imaginary frequencies at q = ( 0.12,  0.03,  0.07) ; (omega_q = 5.480e-02*i)
WARNING, 1 imaginary frequencies at q = ( 0.12,  0.07, -0.08) ; (omega_q = 5.293e-02*i)
WARNING, 1 imaginary frequencies at q = ( 0.12,  0.07, -0.03) ; (omega_q = 6.709e-02*i)
WARNING, 1 imaginary frequencies at q = ( 0.12,  0.07,  0.03) ; (omega_q = 6.127e-02*i)
WARNING, 1 imaginary frequencies at q = ( 0.12,  0.07,  0.07) ; (omega_q = 3.420e-02*i)
WARNING, 1 imaginary frequencies at q = ( 0.12,  0.12,  0.03) ; (omega_q = 1.820e-02*i)
WARNING, 1 imaginary frequencies at q = ( 0.12,  0.12,  0.07) ; (omega_q = 8.193e-03*i)
WARNING, 1 imaginary frequencies at q = ( 0.18, -0.03, -0.17) ; (omega_q = 2.539e-02*i)
WARNING, 1 imaginary frequencies at q = ( 0.18, -0.03, -0.12) ; (omega_q = 7.063e-02*i)
WARNING, 1 imaginary frequencies at q = ( 0.18, -0.03, -0.08) ; (omega_q = 7.892e-02*i)
WARNING, 1 imaginary frequencies at q = ( 0.18, -0.03, -0.03) ; (omega_q = 6.374e-02*i)
WARNING, 1 imaginary frequencies at q = ( 0.18,  0.03, -0.17) ; (omega_q = 2.517e-02*i)
WARNING, 1 imaginary frequencies at q = ( 0.18, -0.03, -0.03) ; (omega_q = 6.374e-02*i)
WARNING, 1 imaginary frequencies at q = ( 0.18,  0.03, -0.17) ; (omega_q = 2.517e-02*i)
WARNING, 1 imaginary frequencies at q = ( 0.18,  0.03, -0.12) ; (omega_q = 7.435e-02*i)
WARNING, 1 imaginary frequencies at q = ( 0.18,  0.03, -0.08) ; (omega_q = 8.910e-02*i)
WARNING, 1 imaginary frequencies at q = ( 0.18,  0.03, -0.03) ; (omega_q = 8.614e-02*i)
WARNING, 1 imaginary frequencies at q = ( 0.18,  0.03,  0.03) ; (omega_q = 5.817e-02*i)
WARNING, 1 imaginary frequencies at q = ( 0.18,  0.07, -0.03) ; (omega_q = 3.091e-02*i)
WARNING, 1 imaginary frequencies at q = ( 0.18,  0.07,  0.03) ; (omega_q = 2.168e-02*i)
WARNING, 1 imaginary frequencies at q = ( 0.22,  0.03, -0.08) ; (omega_q = 2.979e-02*i)
WARNING, 1 imaginary frequencies at q = ( 0.22,  0.03, -0.03) ; (omega_q = 3.140e-02*i)
******** Phononic DOS calculated *********
Writing to Si_phonons.gpw (mode='')

Phononic structure calculation completed

WARNING, 1 imaginary frequencies at q = ( 0.18,  0.03, -0.12) ; (omega_q = 7.435e-02*i)
WARNING, 1 imaginary frequencies at q = ( 0.18,  0.03, -0.08) ; (omega_q = 8.910e-02*i)
WARNING, 1 imaginary frequencies at q = ( 0.18,  0.03, -0.03) ; (omega_q = 8.614e-02*i)
WARNING, 1 imaginary frequencies at q = ( 0.18,  0.03,  0.03) ; (omega_q = 5.817e-02*i)
WARNING, 1 imaginary frequencies at q = ( 0.18,  0.07, -0.03) ; (omega_q = 3.091e-02*i)
WARNING, 1 imaginary frequencies at q = ( 0.18,  0.07,  0.03) ; (omega_q = 2.168e-02*i)
WARNING, 1 imaginary frequencies at q = ( 0.22,  0.03, -0.08) ; (omega_q = 2.979e-02*i)
WARNING, 1 imaginary frequencies at q = ( 0.22,  0.03, -0.03) ; (omega_q = 3.140e-02*i)

WARNING, 1 imaginary frequencies at q = ( 0.18,  0.03, -0.12) ; (omega_q = 7.435e-02*i)
WARNING, 1 imaginary frequencies at q = ( 0.18,  0.03, -0.08) ; (omega_q = 8.910e-02*i)
WARNING, 1 imaginary frequencies at q = ( 0.18,  0.03, -0.03) ; (omega_q = 8.614e-02*i)
WARNING, 1 imaginary frequencies at q = ( 0.18,  0.03,  0.03) ; (omega_q = 5.817e-02*i)
WARNING, 1 imaginary frequencies at q = ( 0.18,  0.07, -0.03) ; (omega_q = 3.091e-02*i)
WARNING, 1 imaginary frequencies at q = ( 0.18,  0.07,  0.03) ; (omega_q = 2.168e-02*i)
WARNING, 1 imaginary frequencies at q = ( 0.22,  0.03, -0.08) ; (omega_q = 2.979e-02*i)
WARNING, 1 imaginary frequencies at q = ( 0.22,  0.03, -0.03) ; (omega_q = 3.140e-02*i)

WARNING, 1 imaginary frequencies at q = ( 0.18,  0.03, -0.12) ; (omega_q = 7.435e-02*i)
WARNING, 1 imaginary frequencies at q = ( 0.18,  0.03, -0.08) ; (omega_q = 8.910e-02*i)
WARNING, 1 imaginary frequencies at q = ( 0.18,  0.03, -0.03) ; (omega_q = 8.614e-02*i)
WARNING, 1 imaginary frequencies at q = ( 0.18,  0.03,  0.03) ; (omega_q = 5.817e-02*i)
WARNING, 1 imaginary frequencies at q = ( 0.18,  0.07, -0.03) ; (omega_q = 3.091e-02*i)
WARNING, 1 imaginary frequencies at q = ( 0.18,  0.07,  0.03) ; (omega_q = 2.168e-02*i)
WARNING, 1 imaginary frequencies at q = ( 0.22,  0.03, -0.08) ; (omega_q = 2.979e-02*i)
WARNING, 1 imaginary frequencies at q = ( 0.22,  0.03, -0.03) ; (omega_q = 3.140e-02*i)

WARNING, 1 imaginary frequencies at q = ( 0.18,  0.03, -0.12) ; (omega_q = 7.435e-02*i)
WARNING, 1 imaginary frequencies at q = ( 0.18,  0.03, -0.08) ; (omega_q = 8.910e-02*i)
WARNING, 1 imaginary frequencies at q = ( 0.18,  0.03, -0.03) ; (omega_q = 8.614e-02*i)
WARNING, 1 imaginary frequencies at q = ( 0.18,  0.03,  0.03) ; (omega_q = 5.817e-02*i)
WARNING, 1 imaginary frequencies at q = ( 0.18,  0.07, -0.03) ; (omega_q = 3.091e-02*i)
WARNING, 1 imaginary frequencies at q = ( 0.18,  0.07,  0.03) ; (omega_q = 2.168e-02*i)
WARNING, 1 imaginary frequencies at q = ( 0.22,  0.03, -0.08) ; (omega_q = 2.979e-02*i)
WARNING, 1 imaginary frequencies at q = ( 0.22,  0.03, -0.03) ; (omega_q = 3.140e-02*i)

WARNING, 1 imaginary frequencies at q = ( 0.18,  0.03, -0.12) ; (omega_q = 7.435e-02*i)
WARNING, 1 imaginary frequencies at q = ( 0.18,  0.03, -0.08) ; (omega_q = 8.910e-02*i)
WARNING, 1 imaginary frequencies at q = ( 0.18,  0.03, -0.03) ; (omega_q = 8.614e-02*i)
WARNING, 1 imaginary frequencies at q = ( 0.18,  0.03,  0.03) ; (omega_q = 5.817e-02*i)
WARNING, 1 imaginary frequencies at q = ( 0.18,  0.07, -0.03) ; (omega_q = 3.091e-02*i)
WARNING, 1 imaginary frequencies at q = ( 0.18,  0.07,  0.03) ; (omega_q = 2.168e-02*i)
WARNING, 1 imaginary frequencies at q = ( 0.22,  0.03, -0.08) ; (omega_q = 2.979e-02*i)
WARNING, 1 imaginary frequencies at q = ( 0.22,  0.03, -0.03) ; (omega_q = 3.140e-02*i)

WARNING, 1 imaginary frequencies at q = ( 0.18,  0.03, -0.12) ; (omega_q = 7.435e-02*i)
WARNING, 1 imaginary frequencies at q = ( 0.18,  0.03, -0.08) ; (omega_q = 8.910e-02*i)
WARNING, 1 imaginary frequencies at q = ( 0.18,  0.03, -0.03) ; (omega_q = 8.614e-02*i)
WARNING, 1 imaginary frequencies at q = ( 0.18,  0.03,  0.03) ; (omega_q = 5.817e-02*i)
WARNING, 1 imaginary frequencies at q = ( 0.18,  0.07, -0.03) ; (omega_q = 3.091e-02*i)
WARNING, 1 imaginary frequencies at q = ( 0.18,  0.07,  0.03) ; (omega_q = 2.168e-02*i)
WARNING, 1 imaginary frequencies at q = ( 0.22,  0.03, -0.08) ; (omega_q = 2.979e-02*i)
WARNING, 1 imaginary frequencies at q = ( 0.22,  0.03, -0.03) ; (omega_q = 3.140e-02*i)

WARNING, 1 imaginary frequencies at q = ( 0.18,  0.03, -0.12) ; (omega_q = 7.435e-02*i)
WARNING, 1 imaginary frequencies at q = ( 0.18,  0.03, -0.08) ; (omega_q = 8.910e-02*i)
WARNING, 1 imaginary frequencies at q = ( 0.18,  0.03, -0.03) ; (omega_q = 8.614e-02*i)
WARNING, 1 imaginary frequencies at q = ( 0.18,  0.03,  0.03) ; (omega_q = 5.817e-02*i)
WARNING, 1 imaginary frequencies at q = ( 0.18,  0.07, -0.03) ; (omega_q = 3.091e-02*i)
WARNING, 1 imaginary frequencies at q = ( 0.18,  0.07,  0.03) ; (omega_q = 2.168e-02*i)
WARNING, 1 imaginary frequencies at q = ( 0.22,  0.03, -0.08) ; (omega_q = 2.979e-02*i)
WARNING, 1 imaginary frequencies at q = ( 0.22,  0.03, -0.03) ; (omega_q = 3.140e-02*i)

WARNING, 1 imaginary frequencies at q = ( 0.18,  0.03, -0.12) ; (omega_q = 7.435e-02*i)
WARNING, 1 imaginary frequencies at q = ( 0.18,  0.03, -0.08) ; (omega_q = 8.910e-02*i)
WARNING, 1 imaginary frequencies at q = ( 0.18,  0.03, -0.03) ; (omega_q = 8.614e-02*i)
WARNING, 1 imaginary frequencies at q = ( 0.18,  0.03,  0.03) ; (omega_q = 5.817e-02*i)
WARNING, 1 imaginary frequencies at q = ( 0.18,  0.07, -0.03) ; (omega_q = 3.091e-02*i)
WARNING, 1 imaginary frequencies at q = ( 0.18,  0.07,  0.03) ; (omega_q = 2.168e-02*i)
WARNING, 1 imaginary frequencies at q = ( 0.22,  0.03, -0.08) ; (omega_q = 2.979e-02*i)
WARNING, 1 imaginary frequencies at q = ( 0.22,  0.03, -0.03) ; (omega_q = 3.140e-02*i)

WARNING, 1 imaginary frequencies at q = ( 0.18,  0.03, -0.12) ; (omega_q = 7.435e-02*i)
WARNING, 1 imaginary frequencies at q = ( 0.18,  0.03, -0.08) ; (omega_q = 8.910e-02*i)
WARNING, 1 imaginary frequencies at q = ( 0.18,  0.03, -0.03) ; (omega_q = 8.614e-02*i)
WARNING, 1 imaginary frequencies at q = ( 0.18,  0.03,  0.03) ; (omega_q = 5.817e-02*i)
WARNING, 1 imaginary frequencies at q = ( 0.18,  0.07, -0.03) ; (omega_q = 3.091e-02*i)
WARNING, 1 imaginary frequencies at q = ( 0.18,  0.07,  0.03) ; (omega_q = 2.168e-02*i)
WARNING, 1 imaginary frequencies at q = ( 0.22,  0.03, -0.08) ; (omega_q = 2.979e-02*i)
WARNING, 1 imaginary frequencies at q = ( 0.22,  0.03, -0.03) ; (omega_q = 3.140e-02*i)
Timing:                                      incl.     excl.
-------------------------------------------------------------------
Density initialized from wave functions:    25.855    25.854   0.4% |
 Symmetrize density:                         0.000     0.000   0.0% |
Forces:                                     81.795    81.795   1.4% ||
Hamiltonian:                                 1.489     0.012   0.0% |
 Atomic:                                     0.518     0.320   0.0% |
  XC Correction:                             0.198     0.198   0.0% |
 Calculate atomic Hamiltonians:              0.561     0.561   0.0% |
 Communicate:                                0.030     0.030   0.0% |
 Initialize Hamiltonian:                     0.000     0.000   0.0% |
 Poisson:                                    0.007     0.007   0.0% |
 XC 3D grid:                                 0.360     0.360   0.0% |
LCAO initialization:                       124.684     0.024   0.0% |
 LCAO eigensolver:                           1.098     0.013   0.0% |
  Calculate projections:                     0.064     0.064   0.0% |
  DenseAtomicCorrection:                     0.136     0.136   0.0% |
  Distribute overlap matrix:                 0.010     0.010   0.0% |
  Orbital Layouts:                           0.212     0.212   0.0% |
  Potential matrix:                          0.237     0.237   0.0% |
  Sum over cells:                            0.426     0.426   0.0% |
 LCAO to grid:                             108.820   108.820   1.9% ||
 Set positions (LCAO WFS):                  14.742     1.151   0.0% |
  Basic WFS set positions:                   0.001     0.001   0.0% |
  Basis functions set positions:             0.000     0.000   0.0% |
  P tci:                                    10.825    10.825   0.2% |
  ST tci:                                    2.696     2.696   0.0% |
  mktci:                                     0.069     0.069   0.0% |
PWDescriptor:                                0.123     0.123   0.0% |
Redistribute:                                1.160     1.160   0.0% |
SCF-cycle:                                5487.400   106.739   1.9% ||
 Davidson:                                4989.346  1169.809  20.3% |-------|
  Apply H:                                 726.821   696.814  12.1% |----|
   HMM T:                                   30.007    30.007   0.5% |
  Subspace diag:                           907.882     5.436   0.1% |
   calc_h_matrix:                          790.771    62.584   1.1% |
    Apply H:                               728.186   696.449  12.1% |----|
     HMM T:                                 31.737    31.737   0.6% |
   diagonalize:                             20.150    20.150   0.4% |
   rotate_psi:                              91.525    91.525   1.6% ||
  calc. matrices:                         1844.241   390.398   6.8% |--|
   Apply H:                               1453.843  1393.106  24.2% |---------|
    HMM T:                                  60.737    60.737   1.1% |
  diagonalize:                             145.374   145.374   2.5% ||
  rotate_psi:                              195.220   195.220   3.4% ||
 Density:                                  347.324     0.005   0.0% |
  Atomic density matrices:                  16.450    16.450   0.3% |
  Mix:                                       8.527     8.527   0.1% |
  Multipole moments:                         0.082     0.082   0.0% |
  Pseudo density:                          322.261   322.255   5.6% |-|
   Symmetrize density:                       0.006     0.006   0.0% |
 Hamiltonian:                               18.394     0.147   0.0% |
  Atomic:                                    6.715     4.220   0.1% |
   XC Correction:                            2.495     2.495   0.0% |
  Calculate atomic Hamiltonians:             6.836     6.836   0.1% |
  Communicate:                               0.040     0.040   0.0% |
  Poisson:                                   0.097     0.097   0.0% |
  XC 3D grid:                                4.560     4.560   0.1% |
 Orthonormalize:                            25.596     0.389   0.0% |
  calc_s_matrix:                             3.007     3.007   0.1% |
  inverse-cholesky:                          0.944     0.944   0.0% |
  projections:                              17.692    17.692   0.3% |
  rotate_psi_s:                              3.563     3.563   0.1% |
Set symmetry:                                0.144     0.144   0.0% |
Other:                                      30.843    30.843   0.5% |
-------------------------------------------------------------------
Total:                                              5753.491 100.0%

Memory usage: 699.73 MiB
Date: Thu Mar  5 10:35:33 2020
------------------ Task 7 done -------------------
