
  ___ ___ ___ _ _ _  
 |   |   |_  | | | | 
 | | | | | . | | | | 
 |__ |  _|___|_____|  19.8.1
 |___|_|             

User:   ericlin@remote11.chalmers.se
Date:   Wed Jan 29 21:05:31 2020
Arch:   x86_64
Pid:    4692
Python: 3.7.4
gpaw:   /chalmers/users/ericlin/miniconda3/lib/python3.7/site-packages/gpaw
_gpaw:  /chalmers/users/ericlin/miniconda3/lib/python3.7/site-packages/
        _gpaw.cpython-37m-x86_64-linux-gnu.so
ase:    /chalmers/users/ericlin/miniconda3/lib/python3.7/site-packages/ase (version 3.19.0)
numpy:  /chalmers/users/ericlin/miniconda3/lib/python3.7/site-packages/numpy (version 1.18.1)
scipy:  /chalmers/users/ericlin/miniconda3/lib/python3.7/site-packages/scipy (version 1.3.2)
libxc:  4.3.4
units:  Angstrom and eV
cores:  1

Input parameters:
  basis: dzp
  h: 0.25
  mode: lcao
  nbands: 10
  occupations: {name: fermi-dirac,
                width: 0.05}
  setups: {Na: 1}

System changes: positions, numbers, cell, pbc, initial_charges, initial_magmoms 

Initialize ...

Na-setup:
  name: Sodium
  id: fa5c50181d04022fed15b2593599c257
  Z: 11
  valence: 1
  core: 10
  charge: 0.0
  file: /chalmers/users/ericlin/gpaw/gpaw-setups-0.9.20000/Na.1.LDA.gz
  compensation charges: gauss, rc=0.43, lmax=2
  cutoffs: 2.36(filt), 3.60(core),
  valence states:
                energy  radius
    3s(1.00)    -2.819   1.349
    3p(0.00)    -0.774   1.349
    *s          24.392   1.349

  LCAO basis set for Na:
    Name: 1.dzp
    File: /chalmers/users/ericlin/gpaw/gpaw-setups-0.9.20000/Na.1.dzp.basis.gz
    Number of radial functions: 3
    Number of spherical harmonics: 5
      l=0, rc=11.7656 Bohr: 3s-sz confined orbital
      l=0, rc=7.1094 Bohr: 3s-dz split-valence wave
      l=1, rc=11.7656 Bohr: p-type Gaussian polarization

Reference energy: -26392.251304

Spin-paired calculation

Occupation numbers:
  Fermi-Dirac: width=0.0500 eV

Convergence criteria:
  Maximum total energy change: 0.0005 eV / electron
  Maximum integral of absolute density change: 0.0001 electrons
  Maximum integral of absolute eigenstate change: 4e-08 eV^2
  Maximum number of iterations: 333

Symmetries present (total): 1

  ( 1  0  0)
  ( 0  1  0)
  ( 0  0  1)

1 k-point (Gamma)
1 k-point in the irreducible part of the Brillouin zone
       k-points in crystal coordinates                weights
   0:     0.00000000    0.00000000    0.00000000          1/1

Wave functions: LCAO
  Diagonalizer: Serial LAPACK
  Atomic Correction: dense with blas
  Datatype: float
 

Eigensolver
   LCAO using direct dense diagonalizer 

Densities:
  Coarse grid: 64*64*64 grid
  Fine grid: 128*128*128 grid
  Total Charge: 0.000000 

Density mixing:
  Method: separate
  Backend: pulay
  Linear mixing parameter: 0.25
  Mixing with 3 old densities
  No damping of long wave oscillations 

Hamiltonian:
  XC and Coulomb potentials evaluated on a 128*128*128 grid
  Using the LDA Exchange-Correlation functional
  Interpolation: tri-quintic (5. degree polynomial)
  Poisson solver: FastPoissonSolver using
    6*3+1=19 point O(h^6) finite-difference Laplacian stencil;
    FFT axes: [];
    FST axes: [0, 1, 2].
 

Memory estimate:
  Process memory now: 247.80 MiB
  Calculator: 127.06 MiB
    Density: 80.09 MiB
      Arrays: 50.70 MiB
      Localized functions: 17.94 MiB
      Mixer: 11.45 MiB
    Hamiltonian: 34.46 MiB
      Arrays: 33.16 MiB
      XC: 0.00 MiB
      Poisson: 0.00 MiB
      vbar: 1.29 MiB
    Wavefunctions: 12.52 MiB
      C [qnM]: 0.00 MiB
      S, T [2 x qmm]: 0.01 MiB
      P [aqMi]: 0.00 MiB
      BasisFunctions: 12.50 MiB
      Eigensolver: 0.00 MiB

Total number of cores used: 1

Number of atoms: 6
Number of atomic orbitals: 30
Number of bands in calculation: 10
Bands to converge: occupied states only
Number of valence electrons: 6

... initialized

Initializing position-dependent things.

Density initialized from atomic densities
           .--------------------------------------.  
          /|                                      |  
         / |                                      |  
        /  |                                      |  
       /   |                                      |  
      /    |                                      |  
     /     |                                      |  
    /      |                                      |  
   /       |                                      |  
  /        |                                      |  
 *         |                                      |  
 |         |                                      |  
 |         |                                      |  
 |         |                    Na                |  
 |         |            Na                        |  
 |         |        Na                            |  
 |         |               Na                     |  
 |         |          Na    Na                    |  
 |         |                                      |  
 |         |                                      |  
 |         .--------------------------------------.  
 |        /                                      /   
 |       /                                      /    
 |      /                                      /     
 |     /                                      /      
 |    /                                      /       
 |   /                                      /        
 |  /                                      /         
 | /                                      /          
 |/                                      /           
 *--------------------------------------*            

Positions:
   0 Na     7.440348    8.521082    8.877254    ( 0.0000,  0.0000,  0.0000)
   1 Na     9.029094    6.259273    7.982732    ( 0.0000,  0.0000,  0.0000)
   2 Na     6.452548    5.835320    9.194751    ( 0.0000,  0.0000,  0.0000)
   3 Na     8.962624    8.703107    6.438008    ( 0.0000,  0.0000,  0.0000)
   4 Na    10.309060    8.632118    9.000124    ( 0.0000,  0.0000,  0.0000)
   5 Na     6.637390    6.998294    6.555476    ( 0.0000,  0.0000,  0.0000)

Unit cell:
           periodic     x           y           z      points  spacing
  1. axis:    no    16.000000    0.000000    0.000000    64     0.2500
  2. axis:    no     0.000000   16.000000    0.000000    64     0.2500
  3. axis:    no     0.000000    0.000000   16.000000    64     0.2500

  Lengths:  16.000000  16.000000  16.000000
  Angles:   90.000000  90.000000  90.000000

Effective grid spacing dv^(1/3) = 0.2500

                     log10-error:    total        iterations:
           time      wfs    density  energy       fermi  poisson
iter:   1  21:05:36          +inf    -3.650463    1      1      
iter:   2  21:05:37         -0.53    -3.314753    32     1      
iter:   3  21:05:38         -0.81    -3.187150    33     1      
iter:   4  21:05:39         -1.41    -3.186822    2      1      
iter:   5  21:05:40         -1.60    -3.181002    2      1      
iter:   6  21:05:41         -2.01    -3.180020    2      1      
iter:   7  21:05:42         -2.31    -3.179993    2      1      
iter:   8  21:05:43         -2.67    -3.180050    2      1      
iter:   9  21:05:44         -3.01    -3.180070    1      1      
iter:  10  21:05:46         -3.24    -3.180062    1      1      
iter:  11  21:05:47         -3.53    -3.180055    1      1      
iter:  12  21:05:48         -3.75    -3.180052    1      1      
iter:  13  21:05:49         -4.16    -3.180055    1      1      

Converged after 13 iterations.

Dipole moment: (0.041003, -0.044187, 0.176021) |e|*Ang

Energy contributions relative to reference atoms: (reference = -26392.251304)

Kinetic:        +48.525546
Potential:      -39.151806
External:        +0.000000
XC:             -12.569912
Entropy (-ST):   -0.103199
Local:           +0.067718
--------------------------
Free energy:     -3.231654
Extrapolated:    -3.180055

Fermi level: -2.75204

 Band  Eigenvalues  Occupancy
    0     -5.25246    2.00000
    1     -3.37659    1.99999
    2     -2.81783    1.57695
    3     -2.68625    0.42305
    4     -1.41016    0.00000
    5     -1.20610    0.00000
    6      0.30482    0.00000
    7      1.13466    0.00000
    8      2.06365    0.00000
    9      2.52403    0.00000

Gap: 0.132 eV
Transition (v -> c):
  (s=0, k=0, n=2, [0.00, 0.00, 0.00]) -> (s=0, k=0, n=3, [0.00, 0.00, 0.00])

Forces in eV/Ang:
  0 Na   -0.54006    0.78321    0.76626
  1 Na    0.72221   -0.97761    0.06276
  2 Na   -0.57139   -0.67532    0.69282
  3 Na    0.35833    0.68200   -1.09435
  4 Na    0.86463    0.36282    0.61263
  5 Na   -0.83257   -0.17513   -1.03858

System changes: positions 

Initializing position-dependent things.

Density initialized from wave functions
           .--------------------------------------.  
          /|                                      |  
         / |                                      |  
        /  |                                      |  
       /   |                                      |  
      /    |                                      |  
     /     |                                      |  
    /      |                                      |  
   /       |                                      |  
  /        |                                      |  
 *         |                                      |  
 |         |                                      |  
 |         |                                      |  
 |         |            Na      Na                |  
 |         |                                      |  
 |         |        Na                            |  
 |         |               Na                     |  
 |         |                Na                    |  
 |         |         Na                           |  
 |         |                                      |  
 |         .--------------------------------------.  
 |        /                                      /   
 |       /                                      /    
 |      /                                      /     
 |     /                                      /      
 |    /                                      /       
 |   /                                      /        
 |  /                                      /         
 | /                                      /          
 |/                                      /           
 *--------------------------------------*            

Positions:
   0 Na     7.368674    8.625025    8.978947    ( 0.0000,  0.0000,  0.0000)
   1 Na     9.124942    6.129530    7.991062    ( 0.0000,  0.0000,  0.0000)
   2 Na     6.376716    5.745696    9.286698    ( 0.0000,  0.0000,  0.0000)
   3 Na     9.010179    8.793618    6.292772    ( 0.0000,  0.0000,  0.0000)
   4 Na    10.423808    8.680269    9.081428    ( 0.0000,  0.0000,  0.0000)
   5 Na     6.526896    6.975052    6.417642    ( 0.0000,  0.0000,  0.0000)

Unit cell:
           periodic     x           y           z      points  spacing
  1. axis:    no    16.000000    0.000000    0.000000    64     0.2500
  2. axis:    no     0.000000   16.000000    0.000000    64     0.2500
  3. axis:    no     0.000000    0.000000   16.000000    64     0.2500

  Lengths:  16.000000  16.000000  16.000000
  Angles:   90.000000  90.000000  90.000000

Effective grid spacing dv^(1/3) = 0.2500

                     log10-error:    total        iterations:
           time      wfs    density  energy       fermi  poisson
iter:   1  21:05:51          +inf    -4.022684    3      1      
iter:   2  21:05:52         -1.32    -4.022294    2      1      
iter:   3  21:05:53         -1.81    -4.019580    2      1      
iter:   4  21:05:54         -1.98    -4.017184    2      1      
iter:   5  21:05:55         -2.57    -4.017163    2      1      
iter:   6  21:05:56         -2.78    -4.017152    2      1      
iter:   7  21:05:57         -3.35    -4.017161    2      1      
iter:   8  21:05:58         -3.73    -4.017157    1      1      
iter:   9  21:06:00         -4.05    -4.017155    1      1      

Converged after 9 iterations.

Dipole moment: (0.041081, -0.044431, 0.175476) |e|*Ang

Energy contributions relative to reference atoms: (reference = -26392.251304)

Kinetic:        +34.365618
Potential:      -28.261761
External:        +0.000000
XC:             -10.114577
Entropy (-ST):   -0.104967
Local:           +0.046049
--------------------------
Free energy:     -4.069638
Extrapolated:    -4.017155

Fermi level: -2.71476

 Band  Eigenvalues  Occupancy
    0     -5.03145    2.00000
    1     -3.28887    1.99998
    2     -2.77854    1.56337
    3     -2.65099    0.43665
    4     -1.42136    0.00000
    5     -1.30394    0.00000
    6      0.52303    0.00000
    7      1.26864    0.00000
    8      2.17084    0.00000
    9      2.62415    0.00000

Gap: 0.128 eV
Transition (v -> c):
  (s=0, k=0, n=2, [0.00, 0.00, 0.00]) -> (s=0, k=0, n=3, [0.00, 0.00, 0.00])

Forces in eV/Ang:
  0 Na   -0.19677    0.28493    0.29630
  1 Na    0.26734   -0.36166    0.03618
  2 Na   -0.29901   -0.34248    0.33124
  3 Na    0.15612    0.29998   -0.49002
  4 Na    0.44075    0.19398    0.29107
  5 Na   -0.36842   -0.07450   -0.46348

System changes: positions 

Initializing position-dependent things.

Density initialized from wave functions
           .--------------------------------------.  
          /|                                      |  
         / |                                      |  
        /  |                                      |  
       /   |                                      |  
      /    |                                      |  
     /     |                                      |  
    /      |                                      |  
   /       |                                      |  
  /        |                                      |  
 *         |                                      |  
 |         |                                      |  
 |         |                                      |  
 |         |            Na      Na                |  
 |         |                                      |  
 |         |        Na                            |  
 |         |               Na                     |  
 |         |                 Na                   |  
 |         |         Na                           |  
 |         |                                      |  
 |         .--------------------------------------.  
 |        /                                      /   
 |       /                                      /    
 |      /                                      /     
 |     /                                      /      
 |    /                                      /       
 |   /                                      /        
 |  /                                      /         
 | /                                      /          
 |/                                      /           
 *--------------------------------------*            

Positions:
   0 Na     7.317518    8.699153    9.053958    ( 0.0000,  0.0000,  0.0000)
   1 Na     9.193950    6.036150    7.998895    ( 0.0000,  0.0000,  0.0000)
   2 Na     6.309710    5.668050    9.363503    ( 0.0000,  0.0000,  0.0000)
   3 Na     9.047747    8.865523    6.176163    ( 0.0000,  0.0000,  0.0000)
   4 Na    10.523541    8.723400    9.149084    ( 0.0000,  0.0000,  0.0000)
   5 Na     6.438801    6.956946    6.307196    ( 0.0000,  0.0000,  0.0000)

Unit cell:
           periodic     x           y           z      points  spacing
  1. axis:    no    16.000000    0.000000    0.000000    64     0.2500
  2. axis:    no     0.000000   16.000000    0.000000    64     0.2500
  3. axis:    no     0.000000    0.000000   16.000000    64     0.2500

  Lengths:  16.000000  16.000000  16.000000
  Angles:   90.000000  90.000000  90.000000

Effective grid spacing dv^(1/3) = 0.2500

                     log10-error:    total        iterations:
           time      wfs    density  energy       fermi  poisson
iter:   1  21:06:01          +inf    -4.291825    3      1      
iter:   2  21:06:03         -1.47    -4.294698    2      1      
iter:   3  21:06:04         -1.97    -4.293188    2      1      
iter:   4  21:06:05         -2.14    -4.292300    2      1      
iter:   5  21:06:06         -2.80    -4.292397    2      1      
iter:   6  21:06:07         -3.09    -4.292409    2      1      
iter:   7  21:06:08         -3.47    -4.292420    2      1      
iter:   8  21:06:09         -3.95    -4.292412    2      1      
iter:   9  21:06:10         -4.53    -4.292413    1      1      

Converged after 9 iterations.

Dipole moment: (0.041947, -0.045373, 0.178300) |e|*Ang

Energy contributions relative to reference atoms: (reference = -26392.251304)

Kinetic:        +25.973106
Potential:      -21.742719
External:        +0.000000
XC:              -8.506665
Entropy (-ST):   -0.106292
Local:           +0.037012
--------------------------
Free energy:     -4.345559
Extrapolated:    -4.292413

Fermi level: -2.70099

 Band  Eigenvalues  Occupancy
    0     -4.86499    2.00000
    1     -3.22927    1.99995
    2     -2.76326    1.55301
    3     -2.63872    0.44704
    4     -1.45740    0.00000
    5     -1.39148    0.00000
    6      0.71901    0.00000
    7      1.43856    0.00000
    8      2.29880    0.00000
    9      2.64398    0.00000

Gap: 0.125 eV
Transition (v -> c):
  (s=0, k=0, n=2, [0.00, 0.00, 0.00]) -> (s=0, k=0, n=3, [0.00, 0.00, 0.00])

Forces in eV/Ang:
  0 Na   -0.02975    0.04429    0.08623
  1 Na    0.05520   -0.07269    0.03864
  2 Na   -0.14869   -0.15621    0.13085
  3 Na    0.05338    0.11013   -0.18824
  4 Na    0.20267    0.09938    0.11299
  5 Na   -0.13533   -0.02324   -0.18065

System changes: positions 

Initializing position-dependent things.

Density initialized from wave functions
           .--------------------------------------.  
          /|                                      |  
         / |                                      |  
        /  |                                      |  
       /   |                                      |  
      /    |                                      |  
     /     |                                      |  
    /      |                                      |  
   /       |                                      |  
  /        |                                      |  
 *         |                                      |  
 |         |                                      |  
 |         |                                      |  
 |         |            Na      Na                |  
 |         |                                      |  
 |         |        Na                            |  
 |         |               Na                     |  
 |         |                 Na                   |  
 |         |         Na                           |  
 |         |                                      |  
 |         .--------------------------------------.  
 |        /                                      /   
 |       /                                      /    
 |      /                                      /     
 |     /                                      /      
 |    /                                      /       
 |   /                                      /        
 |  /                                      /         
 | /                                      /          
 |/                                      /           
 *--------------------------------------*            

Positions:
   0 Na     7.287812    8.742390    9.105701    ( 0.0000,  0.0000,  0.0000)
   1 Na     9.236851    5.978462    8.009980    ( 0.0000,  0.0000,  0.0000)
   2 Na     6.248080    5.599809    9.426210    ( 0.0000,  0.0000,  0.0000)
   3 Na     9.076072    8.921246    6.083807    ( 0.0000,  0.0000,  0.0000)
   4 Na    10.611620    8.763840    9.203861    ( 0.0000,  0.0000,  0.0000)
   5 Na     6.370390    6.943795    6.219352    ( 0.0000,  0.0000,  0.0000)

Unit cell:
           periodic     x           y           z      points  spacing
  1. axis:    no    16.000000    0.000000    0.000000    64     0.2500
  2. axis:    no     0.000000   16.000000    0.000000    64     0.2500
  3. axis:    no     0.000000    0.000000   16.000000    64     0.2500

  Lengths:  16.000000  16.000000  16.000000
  Angles:   90.000000  90.000000  90.000000

Effective grid spacing dv^(1/3) = 0.2500

                     log10-error:    total        iterations:
           time      wfs    density  energy       fermi  poisson
iter:   1  21:06:12          +inf    -4.355931    3      1      
iter:   2  21:06:13         -1.73    -4.358097    2      1      
iter:   3  21:06:14         -2.07    -4.357242    2      1      
iter:   4  21:06:15         -2.25    -4.356907    2      1      
iter:   5  21:06:17         -2.88    -4.356957    2      1      
iter:   6  21:06:18         -3.22    -4.356986    2      1      
iter:   7  21:06:19         -3.81    -4.356987    2      1      
iter:   8  21:06:20         -4.00    -4.356982    1      1      
iter:   9  21:06:21         -4.30    -4.356982    1      1      

Converged after 9 iterations.

Dipole moment: (0.044544, -0.048286, 0.189074) |e|*Ang

Energy contributions relative to reference atoms: (reference = -26392.251304)

Kinetic:        +20.912147
Potential:      -17.791176
External:        +0.000000
XC:              -7.456294
Entropy (-ST):   -0.105235
Local:           +0.030959
--------------------------
Free energy:     -4.409599
Extrapolated:    -4.356982

Fermi level: -2.69499

 Band  Eigenvalues  Occupancy
    0     -4.74811    2.00000
    1     -3.19200    1.99990
    2     -2.75851    1.56162
    3     -2.63148    0.43847
    4     -1.50536    0.00000
    5     -1.46468    0.00000
    6      0.92783    0.00000
    7      1.63361    0.00000
    8      2.42084    0.00000
    9      2.66673    0.00000

Gap: 0.127 eV
Transition (v -> c):
  (s=0, k=0, n=2, [0.00, 0.00, 0.00]) -> (s=0, k=0, n=3, [0.00, 0.00, 0.00])

Forces in eV/Ang:
  0 Na    0.05665   -0.07972   -0.00609
  1 Na   -0.04833    0.07096    0.05061
  2 Na   -0.05806   -0.04899    0.01846
  3 Na   -0.00409    0.01057   -0.03867
  4 Na    0.06482    0.04190    0.01187
  5 Na   -0.01185    0.00731   -0.03592

System changes: positions 

Initializing position-dependent things.

Density initialized from wave functions
           .--------------------------------------.  
          /|                                      |  
         / |                                      |  
        /  |                                      |  
       /   |                                      |  
      /    |                                      |  
     /     |                                      |  
    /      |                                      |  
   /       |                                      |  
  /        |                                      |  
 *         |                                      |  
 |         |                                      |  
 |         |                                      |  
 |         |            Na      Na                |  
 |         |                                      |  
 |         |        Na                            |  
 |         |               Na                     |  
 |         |                 Na                   |  
 |         |         Na                           |  
 |         |                                      |  
 |         .--------------------------------------.  
 |        /                                      /   
 |       /                                      /    
 |      /                                      /     
 |     /                                      /      
 |    /                                      /       
 |   /                                      /        
 |  /                                      /         
 | /                                      /          
 |/                                      /           
 *--------------------------------------*            

Positions:
   0 Na     7.292654    8.735850    9.114639    ( 0.0000,  0.0000,  0.0000)
   1 Na     9.236122    5.980532    8.021669    ( 0.0000,  0.0000,  0.0000)
   2 Na     6.224027    5.576158    9.442827    ( 0.0000,  0.0000,  0.0000)
   3 Na     9.081160    8.934667    6.057665    ( 0.0000,  0.0000,  0.0000)
   4 Na    10.642469    8.780361    9.217586    ( 0.0000,  0.0000,  0.0000)
   5 Na     6.354092    6.942431    6.194583    ( 0.0000,  0.0000,  0.0000)

Unit cell:
           periodic     x           y           z      points  spacing
  1. axis:    no    16.000000    0.000000    0.000000    64     0.2500
  2. axis:    no     0.000000   16.000000    0.000000    64     0.2500
  3. axis:    no     0.000000    0.000000   16.000000    64     0.2500

  Lengths:  16.000000  16.000000  16.000000
  Angles:   90.000000  90.000000  90.000000

Effective grid spacing dv^(1/3) = 0.2500

                     log10-error:    total        iterations:
           time      wfs    density  energy       fermi  poisson
iter:   1  21:06:23          +inf    -4.367672    2      1      
iter:   2  21:06:24         -2.03    -4.365995    2      1      
iter:   3  21:06:25         -2.60    -4.366097    2      1      
iter:   4  21:06:26         -2.76    -4.365959    2      1      
iter:   5  21:06:27         -3.28    -4.365969    2      1      
iter:   6  21:06:28         -3.49    -4.365981    2      1      
iter:   7  21:06:30         -4.18    -4.365986    1      1      

Converged after 7 iterations.

Dipole moment: (0.048111, -0.052217, 0.204455) |e|*Ang

Energy contributions relative to reference atoms: (reference = -26392.251304)

Kinetic:        +19.965139
Potential:      -17.051727
External:        +0.000000
XC:              -7.258641
Entropy (-ST):   -0.101674
Local:           +0.030081
--------------------------
Free energy:     -4.416823
Extrapolated:    -4.365986

Fermi level: -2.68903

 Band  Eigenvalues  Occupancy
    0     -4.72584    2.00000
    1     -3.18706    1.99991
    2     -2.75661    1.58878
    3     -2.62146    0.41131
    4     -1.52544    0.00000
    5     -1.48196    0.00000
    6      0.97768    0.00000
    7      1.68680    0.00000
    8      2.44698    0.00000
    9      2.68493    0.00000

Gap: 0.135 eV
Transition (v -> c):
  (s=0, k=0, n=2, [0.00, 0.00, 0.00]) -> (s=0, k=0, n=3, [0.00, 0.00, 0.00])

Forces in eV/Ang:
  0 Na    0.07093   -0.09971   -0.01700
  1 Na   -0.06380    0.09218    0.05545
  2 Na   -0.03910   -0.02759   -0.00255
  3 Na   -0.01827   -0.00936   -0.01445
  4 Na    0.03681    0.02953   -0.00689
  5 Na    0.01246    0.01624   -0.01352

System changes: positions 

Initializing position-dependent things.

Density initialized from wave functions
           .--------------------------------------.  
          /|                                      |  
         / |                                      |  
        /  |                                      |  
       /   |                                      |  
      /    |                                      |  
     /     |                                      |  
    /      |                                      |  
   /       |                                      |  
  /        |                                      |  
 *         |                                      |  
 |         |                                      |  
 |         |                                      |  
 |         |            Na      Na                |  
 |         |                                      |  
 |         |        Na                            |  
 |         |               Na                     |  
 |         |                 Na                   |  
 |         |         Na                           |  
 |         |                                      |  
 |         .--------------------------------------.  
 |        /                                      /   
 |       /                                      /    
 |      /                                      /     
 |     /                                      /      
 |    /                                      /       
 |   /                                      /        
 |  /                                      /         
 | /                                      /          
 |/                                      /           
 *--------------------------------------*            

Positions:
   0 Na     7.316135    8.702762    9.106962    ( 0.0000,  0.0000,  0.0000)
   1 Na     9.214240    6.011916    8.038513    ( 0.0000,  0.0000,  0.0000)
   2 Na     6.212979    5.569018    9.440460    ( 0.0000,  0.0000,  0.0000)
   3 Na     9.074727    8.930094    6.056133    ( 0.0000,  0.0000,  0.0000)
   4 Na    10.652098    8.788856    9.214076    ( 0.0000,  0.0000,  0.0000)
   5 Na     6.359979    6.947780    6.193102    ( 0.0000,  0.0000,  0.0000)

Unit cell:
           periodic     x           y           z      points  spacing
  1. axis:    no    16.000000    0.000000    0.000000    64     0.2500
  2. axis:    no     0.000000   16.000000    0.000000    64     0.2500
  3. axis:    no     0.000000    0.000000   16.000000    64     0.2500

  Lengths:  16.000000  16.000000  16.000000
  Angles:   90.000000  90.000000  90.000000

Effective grid spacing dv^(1/3) = 0.2500

                     log10-error:    total        iterations:
           time      wfs    density  energy       fermi  poisson
iter:   1  21:06:31          +inf    -4.385321    2      1      
iter:   2  21:06:32         -1.69    -4.380498    2      1      
iter:   3  21:06:33         -2.37    -4.380515    2      1      
iter:   4  21:06:35         -2.57    -4.380272    2      1      
iter:   5  21:06:36         -3.25    -4.380287    2      1      
iter:   6  21:06:37         -3.39    -4.380294    2      1      
iter:   7  21:06:38         -4.03    -4.380297    1      1      

Converged after 7 iterations.

Dipole moment: (0.053395, -0.058084, 0.227556) |e|*Ang

Energy contributions relative to reference atoms: (reference = -26392.251304)

Kinetic:        +20.580241
Potential:      -17.540910
External:        +0.000000
XC:              -7.403088
Entropy (-ST):   -0.095148
Local:           +0.031034
--------------------------
Free energy:     -4.427872
Extrapolated:    -4.380297

Fermi level: -2.67899

 Band  Eigenvalues  Occupancy
    0     -4.74113    2.00000
    1     -3.19438    1.99993
    2     -2.75388    1.63451
    3     -2.60411    0.36555
    4     -1.53400    0.00000
    5     -1.47402    0.00000
    6      0.94541    0.00000
    7      1.66040    0.00000
    8      2.42406    0.00000
    9      2.71068    0.00000

Gap: 0.150 eV
Transition (v -> c):
  (s=0, k=0, n=2, [0.00, 0.00, 0.00]) -> (s=0, k=0, n=3, [0.00, 0.00, 0.00])

Forces in eV/Ang:
  0 Na    0.05886   -0.08185   -0.00122
  1 Na   -0.04858    0.07078    0.05592
  2 Na   -0.04372   -0.03403    0.00566
  3 Na   -0.01809   -0.00302   -0.03029
  4 Na    0.04512    0.03237    0.00077
  5 Na    0.00531    0.01711   -0.02933

System changes: positions 

Initializing position-dependent things.

Density initialized from wave functions
           .--------------------------------------.  
          /|                                      |  
         / |                                      |  
        /  |                                      |  
       /   |                                      |  
      /    |                                      |  
     /     |                                      |  
    /      |                                      |  
   /       |                                      |  
  /        |                                      |  
 *         |                                      |  
 |         |                                      |  
 |         |                                      |  
 |         |            Na       Na               |  
 |         |                                      |  
 |         |       Na                             |  
 |         |                Na                    |  
 |         |                 Na                   |  
 |         |        Na                            |  
 |         |                                      |  
 |         .--------------------------------------.  
 |        /                                      /   
 |       /                                      /    
 |      /                                      /     
 |     /                                      /      
 |    /                                      /       
 |   /                                      /        
 |  /                                      /         
 | /                                      /          
 |/                                      /           
 *--------------------------------------*            

Positions:
   0 Na     7.115045    8.987605    9.240505    ( 0.0000,  0.0000,  0.0000)
   1 Na     9.425897    5.714969    7.947907    ( 0.0000,  0.0000,  0.0000)
   2 Na     6.144731    5.464606    9.588818    ( 0.0000,  0.0000,  0.0000)
   3 Na     9.180893    9.075709    5.885162    ( 0.0000,  0.0000,  0.0000)
   4 Na    10.785348    8.826536    9.352785    ( 0.0000,  0.0000,  0.0000)
   5 Na     6.179271    6.880283    6.031020    ( 0.0000,  0.0000,  0.0000)

Unit cell:
           periodic     x           y           z      points  spacing
  1. axis:    no    16.000000    0.000000    0.000000    64     0.2500
  2. axis:    no     0.000000   16.000000    0.000000    64     0.2500
  3. axis:    no     0.000000    0.000000   16.000000    64     0.2500

  Lengths:  16.000000  16.000000  16.000000
  Angles:   90.000000  90.000000  90.000000

Effective grid spacing dv^(1/3) = 0.2500

                     log10-error:    total        iterations:
           time      wfs    density  energy       fermi  poisson
iter:   1  21:06:40          +inf    -4.158208    3      1      
iter:   2  21:06:41         -0.60    -4.123657    2      1      
iter:   3  21:06:42         -0.94    -4.076624    3      1      
iter:   4  21:06:43         -1.52    -4.070334    3      1      
iter:   5  21:06:44         -1.51    -4.073517    3      1      
iter:   6  21:06:45         -1.89    -4.071868    2      1      
iter:   7  21:06:46         -2.52    -4.071705    2      1      
iter:   8  21:06:47         -2.81    -4.071682    2      1      
iter:   9  21:06:48         -3.03    -4.071617    2      1      
iter:  10  21:06:50         -3.54    -4.071657    1      1      
iter:  11  21:06:51         -3.71    -4.071639    2      1      
iter:  12  21:06:52         -4.16    -4.071640    2      1      

Converged after 12 iterations.

Dipole moment: (0.025353, -0.026510, 0.104633) |e|*Ang

Energy contributions relative to reference atoms: (reference = -26392.251304)

Kinetic:        +10.244947
Potential:       -9.337504
External:        +0.000000
XC:              -4.935754
Entropy (-ST):   -0.124799
Local:           +0.019071
--------------------------
Free energy:     -4.134039
Extrapolated:    -4.071640

Fermi level: -2.73121

 Band  Eigenvalues  Occupancy
    0     -4.43049    2.00000
    1     -3.09913    1.99873
    2     -2.77063    1.37501
    3     -2.69193    0.62626
    4     -1.68529    0.00000
    5     -1.63572    0.00000
    6      2.24917    0.00000
    7      2.50540    0.00000
    8      2.62686    0.00000
    9      2.79725    0.00000

Gap: 0.079 eV
Transition (v -> c):
  (s=0, k=0, n=2, [0.00, 0.00, 0.00]) -> (s=0, k=0, n=3, [0.00, 0.00, 0.00])

Forces in eV/Ang:
  0 Na    0.17084   -0.24184   -0.12202
  1 Na   -0.18145    0.25580    0.07462
  2 Na    0.08427    0.12646   -0.17267
  3 Na   -0.07565   -0.13423    0.19539
  4 Na   -0.15925   -0.04894   -0.15969
  5 Na    0.16349    0.04325    0.18363

System changes: positions 

Initializing position-dependent things.

Density initialized from wave functions
           .--------------------------------------.  
          /|                                      |  
         / |                                      |  
        /  |                                      |  
       /   |                                      |  
      /    |                                      |  
     /     |                                      |  
    /      |                                      |  
   /       |                                      |  
  /        |                                      |  
 *         |                                      |  
 |         |                                      |  
 |         |                                      |  
 |         |            Na       Na               |  
 |         |                                      |  
 |         |       Na                             |  
 |         |               Na                     |  
 |         |                 Na                   |  
 |         |         Na                           |  
 |         |                                      |  
 |         .--------------------------------------.  
 |        /                                      /   
 |       /                                      /    
 |      /                                      /     
 |     /                                      /      
 |    /                                      /       
 |   /                                      /        
 |  /                                      /         
 | /                                      /          
 |/                                      /           
 *--------------------------------------*            

Positions:
   0 Na     7.324815    8.693290    9.182684    ( 0.0000,  0.0000,  0.0000)
   1 Na     9.234458    5.989116    8.105475    ( 0.0000,  0.0000,  0.0000)
   2 Na     6.058162    5.412388    9.559422    ( 0.0000,  0.0000,  0.0000)
   3 Na     9.110822    9.024713    5.872353    ( 0.0000,  0.0000,  0.0000)
   4 Na    10.855264    8.893814    9.314445    ( 0.0000,  0.0000,  0.0000)
   5 Na     6.243503    6.938237    6.016051    ( 0.0000,  0.0000,  0.0000)

Unit cell:
           periodic     x           y           z      points  spacing
  1. axis:    no    16.000000    0.000000    0.000000    64     0.2500
  2. axis:    no     0.000000   16.000000    0.000000    64     0.2500
  3. axis:    no     0.000000    0.000000   16.000000    64     0.2500

  Lengths:  16.000000  16.000000  16.000000
  Angles:   90.000000  90.000000  90.000000

Effective grid spacing dv^(1/3) = 0.2500

                     log10-error:    total        iterations:
           time      wfs    density  energy       fermi  poisson
iter:   1  21:06:53          +inf    -4.389687    2      1      
iter:   2  21:06:55         -0.94    -4.341535    3      1      
iter:   3  21:06:56         -1.23    -4.324368    3      1      
iter:   4  21:06:57         -1.75    -4.328312    2      1      
iter:   5  21:06:58         -1.79    -4.324649    2      1      
iter:   6  21:06:59         -2.51    -4.324750    2      1      
iter:   7  21:07:00         -2.66    -4.324816    2      1      
iter:   8  21:07:01         -3.17    -4.324832    2      1      
iter:   9  21:07:02         -3.53    -4.324840    2      1      
iter:  10  21:07:04         -4.11    -4.324845    1      1      

Converged after 10 iterations.

Dipole moment: (0.072405, -0.079001, 0.309980) |e|*Ang

Energy contributions relative to reference atoms: (reference = -26392.251304)

Kinetic:        +14.304604
Potential:      -12.613017
External:        +0.000000
XC:              -6.003224
Entropy (-ST):   -0.075631
Local:           +0.024608
--------------------------
Free energy:     -4.362660
Extrapolated:    -4.324845

Fermi level: -2.66248

 Band  Eigenvalues  Occupancy
    0     -4.58831    2.00000
    1     -3.14985    1.99988
    2     -2.75954    1.74896
    3     -2.56545    0.25116
    4     -1.66789    0.00000
    5     -1.60293    0.00000
    6      1.39971    0.00000
    7      2.21427    0.00000
    8      2.63328    0.00000
    9      2.77162    0.00000

Gap: 0.194 eV
Transition (v -> c):
  (s=0, k=0, n=2, [0.00, 0.00, 0.00]) -> (s=0, k=0, n=3, [0.00, 0.00, 0.00])

Forces in eV/Ang:
  0 Na    0.14069   -0.19904   -0.06886
  1 Na   -0.13957    0.19880    0.08029
  2 Na    0.07314    0.09593   -0.10599
  3 Na   -0.10497   -0.11894    0.10067
  4 Na   -0.12071   -0.04468   -0.09626
  5 Na    0.15010    0.06941    0.08818

System changes: positions 

Initializing position-dependent things.

Density initialized from wave functions
           .--------------------------------------.  
          /|                                      |  
         / |                                      |  
        /  |                                      |  
       /   |                                      |  
      /    |                                      |  
     /     |                                      |  
    /      |                                      |  
   /       |                                      |  
  /        |                                      |  
 *         |                                      |  
 |         |                                      |  
 |         |                                      |  
 |         |            Na       Na               |  
 |         |                                      |  
 |         |        Na                            |  
 |         |               Na                     |  
 |         |                 Na                   |  
 |         |         Na                           |  
 |         |                                      |  
 |         .--------------------------------------.  
 |        /                                      /   
 |       /                                      /    
 |      /                                      /     
 |     /                                      /      
 |    /                                      /       
 |   /                                      /        
 |  /                                      /         
 | /                                      /          
 |/                                      /           
 *--------------------------------------*            

Positions:
   0 Na     7.339918    8.669508    9.112901    ( 0.0000,  0.0000,  0.0000)
   1 Na     9.196912    6.038367    8.066468    ( 0.0000,  0.0000,  0.0000)
   2 Na     6.172057    5.531706    9.461061    ( 0.0000,  0.0000,  0.0000)
   3 Na     9.077251    8.945231    6.019775    ( 0.0000,  0.0000,  0.0000)
   4 Na    10.701304    8.817770    9.229898    ( 0.0000,  0.0000,  0.0000)
   5 Na     6.342335    6.949281    6.159128    ( 0.0000,  0.0000,  0.0000)

Unit cell:
           periodic     x           y           z      points  spacing
  1. axis:    no    16.000000    0.000000    0.000000    64     0.2500
  2. axis:    no     0.000000   16.000000    0.000000    64     0.2500
  3. axis:    no     0.000000    0.000000   16.000000    64     0.2500

  Lengths:  16.000000  16.000000  16.000000
  Angles:   90.000000  90.000000  90.000000

Effective grid spacing dv^(1/3) = 0.2500

                     log10-error:    total        iterations:
           time      wfs    density  energy       fermi  poisson
iter:   1  21:07:05          +inf    -4.403183    3      1      
iter:   2  21:07:06         -1.68    -4.399984    3      1      
iter:   3  21:07:07         -1.88    -4.399614    3      1      
iter:   4  21:07:08         -2.14    -4.399412    3      1      
iter:   5  21:07:10         -2.70    -4.399283    2      1      
iter:   6  21:07:11         -3.30    -4.399291    2      1      
iter:   7  21:07:12         -3.51    -4.399308    2      1      
iter:   8  21:07:13         -4.26    -4.399308    1      1      

Converged after 8 iterations.

Dipole moment: (0.062007, -0.067673, 0.265607) |e|*Ang

Energy contributions relative to reference atoms: (reference = -26392.251304)

Kinetic:        +19.821134
Potential:      -16.956235
External:        +0.000000
XC:              -7.252297
Entropy (-ST):   -0.084508
Local:           +0.030344
--------------------------
Free energy:     -4.441562
Extrapolated:    -4.399308

Fermi level: -2.66321

 Band  Eigenvalues  Occupancy
    0     -4.72383    2.00000
    1     -3.19318    1.99995
    2     -2.75001    1.70039
    3     -2.57641    0.29966
    4     -1.56861    0.00000
    5     -1.49169    0.00000
    6      0.99231    0.00000
    7      1.71870    0.00000
    8      2.44202    0.00000
    9      2.75430    0.00000

Gap: 0.174 eV
Transition (v -> c):
  (s=0, k=0, n=2, [0.00, 0.00, 0.00]) -> (s=0, k=0, n=3, [0.00, 0.00, 0.00])

Forces in eV/Ang:
  0 Na    0.06454   -0.08902   -0.00322
  1 Na   -0.05268    0.07716    0.05806
  2 Na   -0.02013   -0.00862   -0.01482
  3 Na   -0.03791   -0.02519   -0.01006
  4 Na    0.01369    0.01713   -0.01668
  5 Na    0.03299    0.02964   -0.01337

System changes: positions 

Initializing position-dependent things.

Density initialized from wave functions
           .--------------------------------------.  
          /|                                      |  
         / |                                      |  
        /  |                                      |  
       /   |                                      |  
      /    |                                      |  
     /     |                                      |  
    /      |                                      |  
   /       |                                      |  
  /        |                                      |  
 *         |                                      |  
 |         |                                      |  
 |         |                                      |  
 |         |            Na       Na               |  
 |         |                                      |  
 |         |       Na                             |  
 |         |               Na                     |  
 |         |                 Na                   |  
 |         |         Na                           |  
 |         |                                      |  
 |         .--------------------------------------.  
 |        /                                      /   
 |       /                                      /    
 |      /                                      /     
 |     /                                      /      
 |    /                                      /       
 |   /                                      /        
 |  /                                      /         
 | /                                      /          
 |/                                      /           
 *--------------------------------------*            

Positions:
   0 Na     7.391651    8.596936    9.101085    ( 0.0000,  0.0000,  0.0000)
   1 Na     9.150808    6.105620    8.107204    ( 0.0000,  0.0000,  0.0000)
   2 Na     6.147706    5.516543    9.454708    ( 0.0000,  0.0000,  0.0000)
   3 Na     9.059982    8.934505    6.012623    ( 0.0000,  0.0000,  0.0000)
   4 Na    10.722760    8.836979    9.220969    ( 0.0000,  0.0000,  0.0000)
   5 Na     6.357250    6.963087    6.152429    ( 0.0000,  0.0000,  0.0000)

Unit cell:
           periodic     x           y           z      points  spacing
  1. axis:    no    16.000000    0.000000    0.000000    64     0.2500
  2. axis:    no     0.000000   16.000000    0.000000    64     0.2500
  3. axis:    no     0.000000    0.000000   16.000000    64     0.2500

  Lengths:  16.000000  16.000000  16.000000
  Angles:   90.000000  90.000000  90.000000

Effective grid spacing dv^(1/3) = 0.2500

                     log10-error:    total        iterations:
           time      wfs    density  energy       fermi  poisson
iter:   1  21:07:15          +inf    -4.434748    2      1      
iter:   2  21:07:16         -1.50    -4.427445    2      1      
iter:   3  21:07:17         -1.87    -4.425223    2      1      
iter:   4  21:07:18         -2.31    -4.425092    2      1      
iter:   5  21:07:19         -2.85    -4.424977    2      1      
iter:   6  21:07:20         -3.08    -4.424983    2      1      
iter:   7  21:07:21         -3.38    -4.425021    2      1      
iter:   8  21:07:22         -4.06    -4.425021    1      1      

Converged after 8 iterations.

Dipole moment: (0.073545, -0.080473, 0.316690) |e|*Ang

Energy contributions relative to reference atoms: (reference = -26392.251304)

Kinetic:        +21.358309
Potential:      -18.188141
External:        +0.000000
XC:              -7.594502
Entropy (-ST):   -0.066555
Local:           +0.032590
--------------------------
Free energy:     -4.458298
Extrapolated:    -4.425021

Fermi level: -2.63825

 Band  Eigenvalues  Occupancy
    0     -4.75345    2.00000
    1     -3.20688    1.99998
    2     -2.74620    1.79301
    3     -2.53030    0.20701
    4     -1.58897    0.00000
    5     -1.47322    0.00000
    6      0.96058    0.00000
    7      1.65975    0.00000
    8      2.38145    0.00000
    9      2.82532    0.00000

Gap: 0.216 eV
Transition (v -> c):
  (s=0, k=0, n=2, [0.00, 0.00, 0.00]) -> (s=0, k=0, n=3, [0.00, 0.00, 0.00])

Forces in eV/Ang:
  0 Na    0.02232   -0.02722    0.03705
  1 Na   -0.00184    0.00687    0.04366
  2 Na   -0.03004   -0.02037    0.00029
  3 Na   -0.03413   -0.01167   -0.03793
  4 Na    0.02846    0.02283   -0.00278
  5 Na    0.01659    0.02825   -0.04154

System changes: positions 

Initializing position-dependent things.

Density initialized from wave functions
           .--------------------------------------.  
          /|                                      |  
         / |                                      |  
        /  |                                      |  
       /   |                                      |  
      /    |                                      |  
     /     |                                      |  
    /      |                                      |  
   /       |                                      |  
  /        |                                      |  
 *         |                                      |  
 |         |                                      |  
 |         |                                      |  
 |         |            Na       Na               |  
 |         |                                      |  
 |         |       Na                             |  
 |         |               Na                     |  
 |         |                 Na                   |  
 |         |         Na                           |  
 |         |                                      |  
 |         .--------------------------------------.  
 |        /                                      /   
 |       /                                      /    
 |      /                                      /     
 |     /                                      /      
 |    /                                      /       
 |   /                                      /        
 |  /                                      /         
 | /                                      /          
 |/                                      /           
 *--------------------------------------*            

Positions:
   0 Na     7.397374    8.590161    9.112859    ( 0.0000,  0.0000,  0.0000)
   1 Na     9.151270    6.105620    8.120153    ( 0.0000,  0.0000,  0.0000)
   2 Na     6.136751    5.506935    9.459605    ( 0.0000,  0.0000,  0.0000)
   3 Na     9.052863    8.934595    5.997133    ( 0.0000,  0.0000,  0.0000)
   4 Na    10.735084    8.844612    9.224657    ( 0.0000,  0.0000,  0.0000)
   5 Na     6.356379    6.970410    6.134979    ( 0.0000,  0.0000,  0.0000)

Unit cell:
           periodic     x           y           z      points  spacing
  1. axis:    no    16.000000    0.000000    0.000000    64     0.2500
  2. axis:    no     0.000000   16.000000    0.000000    64     0.2500
  3. axis:    no     0.000000    0.000000   16.000000    64     0.2500

  Lengths:  16.000000  16.000000  16.000000
  Angles:   90.000000  90.000000  90.000000

Effective grid spacing dv^(1/3) = 0.2500

                     log10-error:    total        iterations:
           time      wfs    density  energy       fermi  poisson
iter:   1  21:07:24          +inf    -4.430578    2      1      
iter:   2  21:07:25         -2.46    -4.430644    2      1      
iter:   3  21:07:26         -2.68    -4.430530    2      1      
iter:   4  21:07:27         -3.14    -4.430466    2      1      
iter:   5  21:07:28         -3.52    -4.430473    1      1      
iter:   6  21:07:30         -3.82    -4.430481    1      1      
iter:   7  21:07:31         -4.27    -4.430482    2      1      

Converged after 7 iterations.

Dipole moment: (0.076954, -0.084051, 0.328938) |e|*Ang

Energy contributions relative to reference atoms: (reference = -26392.251304)

Kinetic:        +21.076534
Potential:      -17.973819
External:        +0.000000
XC:              -7.533955
Entropy (-ST):   -0.063051
Local:           +0.032284
--------------------------
Free energy:     -4.462008
Extrapolated:    -4.430482

Fermi level: -2.63704

 Band  Eigenvalues  Occupancy
    0     -4.74462    2.00000
    1     -3.20112    1.99997
    2     -2.74943    1.80893
    3     -2.52465    0.19110
    4     -1.59529    0.00000
    5     -1.47527    0.00000
    6      0.98364    0.00000
    7      1.69027    0.00000
    8      2.37882    0.00000
    9      2.83472    0.00000

Gap: 0.225 eV
Transition (v -> c):
  (s=0, k=0, n=2, [0.00, 0.00, 0.00]) -> (s=0, k=0, n=3, [0.00, 0.00, 0.00])

Forces in eV/Ang:
  0 Na    0.02544   -0.03301    0.03148
  1 Na   -0.00798    0.01420    0.04227
  2 Na   -0.02451   -0.01281   -0.00794
  3 Na   -0.03300   -0.01532   -0.02662
  4 Na    0.01945    0.01927   -0.01001
  5 Na    0.02146    0.02627   -0.02976

System changes: positions 

Initializing position-dependent things.

Density initialized from wave functions
           .--------------------------------------.  
          /|                                      |  
         / |                                      |  
        /  |                                      |  
       /   |                                      |  
      /    |                                      |  
     /     |                                      |  
    /      |                                      |  
   /       |                                      |  
  /        |                                      |  
 *         |                                      |  
 |         |                                      |  
 |         |                                      |  
 |         |             Na       Na              |  
 |         |                                      |  
 |         |       Na                             |  
 |         |               Na                     |  
 |         |                 Na                   |  
 |         |        Na                            |  
 |         |                                      |  
 |         .--------------------------------------.  
 |        /                                      /   
 |       /                                      /    
 |      /                                      /     
 |     /                                      /      
 |    /                                      /       
 |   /                                      /        
 |  /                                      /         
 | /                                      /          
 |/                                      /           
 *--------------------------------------*            

Positions:
   0 Na     7.471253    8.493588    9.251739    ( 0.0000,  0.0000,  0.0000)
   1 Na     9.141783    6.131024    8.297321    ( 0.0000,  0.0000,  0.0000)
   2 Na     5.862256    5.238254    9.645889    ( 0.0000,  0.0000,  0.0000)
   3 Na     9.071699    9.068964    5.667810    ( 0.0000,  0.0000,  0.0000)
   4 Na    11.085097    9.033473    9.378224    ( 0.0000,  0.0000,  0.0000)
   5 Na     6.192030    6.988720    5.812192    ( 0.0000,  0.0000,  0.0000)

Unit cell:
           periodic     x           y           z      points  spacing
  1. axis:    no    16.000000    0.000000    0.000000    64     0.2500
  2. axis:    no     0.000000   16.000000    0.000000    64     0.2500
  3. axis:    no     0.000000    0.000000   16.000000    64     0.2500

  Lengths:  16.000000  16.000000  16.000000
  Angles:   90.000000  90.000000  90.000000

Effective grid spacing dv^(1/3) = 0.2500

                     log10-error:    total        iterations:
           time      wfs    density  energy       fermi  poisson
iter:   1  21:07:32          +inf    -4.280912    4      1      
iter:   2  21:07:33         -1.39    -4.279971    3      1      
iter:   3  21:07:35         -1.58    -4.279912    3      1      
iter:   4  21:07:36         -1.91    -4.279547    3      1      
iter:   5  21:07:37         -2.81    -4.279479    2      1      
iter:   6  21:07:38         -3.03    -4.279433    2      1      
iter:   7  21:07:39         -3.51    -4.279448    1      1      
iter:   8  21:07:40         -3.86    -4.279454    1      1      
iter:   9  21:07:41         -4.18    -4.279456    1      1      

Converged after 9 iterations.

Dipole moment: (0.110174, -0.120696, 0.481780) |e|*Ang

Energy contributions relative to reference atoms: (reference = -26392.251304)

Kinetic:        +13.268182
Potential:      -11.867842
External:        +0.000000
XC:              -5.695580
Entropy (-ST):   -0.017951
Local:           +0.024760
--------------------------
Free energy:     -4.288431
Extrapolated:    -4.279456

Fermi level: -2.59145

 Band  Eigenvalues  Occupancy
    0     -4.54083    2.00000
    1     -3.12738    1.99996
    2     -2.79182    1.96428
    3     -2.39115    0.03576
    4     -1.82889    0.00000
    5     -1.66471    0.00000
    6      1.65305    0.00000
    7      2.56720    0.00000
    8      2.66828    0.00000
    9      2.97291    0.00000

Gap: 0.401 eV
Transition (v -> c):
  (s=0, k=0, n=2, [0.00, 0.00, 0.00]) -> (s=0, k=0, n=3, [0.00, 0.00, 0.00])

Forces in eV/Ang:
  0 Na    0.03726   -0.05268   -0.01212
  1 Na   -0.03835    0.05572    0.00888
  2 Na    0.15186    0.16171   -0.12528
  3 Na   -0.16197   -0.16907    0.12730
  4 Na   -0.20854   -0.10256   -0.10732
  5 Na    0.21984    0.10576    0.10640

System changes: positions 

Initializing position-dependent things.

Density initialized from wave functions
           .--------------------------------------.  
          /|                                      |  
         / |                                      |  
        /  |                                      |  
       /   |                                      |  
      /    |                                      |  
     /     |                                      |  
    /      |                                      |  
   /       |                                      |  
  /        |                                      |  
 *         |                                      |  
 |         |                                      |  
 |         |                                      |  
 |         |            Na       Na               |  
 |         |                                      |  
 |         |       Na                             |  
 |         |               Na                     |  
 |         |                 Na                   |  
 |         |         Na                           |  
 |         |                                      |  
 |         .--------------------------------------.  
 |        /                                      /   
 |       /                                      /    
 |      /                                      /     
 |     /                                      /      
 |    /                                      /       
 |   /                                      /        
 |  /                                      /         
 | /                                      /          
 |/                                      /           
 *--------------------------------------*            

Positions:
   0 Na     7.411199    8.575308    9.223440    ( 0.0000,  0.0000,  0.0000)
   1 Na     9.178728    6.073521    8.218822    ( 0.0000,  0.0000,  0.0000)
   2 Na     5.965819    5.330531    9.598716    ( 0.0000,  0.0000,  0.0000)
   3 Na     9.076535    9.037801    5.763677    ( 0.0000,  0.0000,  0.0000)
   4 Na    10.963327    8.959897    9.342821    ( 0.0000,  0.0000,  0.0000)
   5 Na     6.229280    6.975614    5.905715    ( 0.0000,  0.0000,  0.0000)

Unit cell:
           periodic     x           y           z      points  spacing
  1. axis:    no    16.000000    0.000000    0.000000    64     0.2500
  2. axis:    no     0.000000   16.000000    0.000000    64     0.2500
  3. axis:    no     0.000000    0.000000   16.000000    64     0.2500

  Lengths:  16.000000  16.000000  16.000000
  Angles:   90.000000  90.000000  90.000000

Effective grid spacing dv^(1/3) = 0.2500

                     log10-error:    total        iterations:
           time      wfs    density  energy       fermi  poisson
iter:   1  21:07:43          +inf    -4.340082    3      1      
iter:   2  21:07:44         -1.93    -4.340873    2      1      
iter:   3  21:07:45         -2.12    -4.341428    2      1      
iter:   4  21:07:46         -2.53    -4.341419    2      1      
iter:   5  21:07:47         -3.04    -4.341370    1      1      
iter:   6  21:07:48         -3.35    -4.341351    2      1      
iter:   7  21:07:50         -3.82    -4.341352    2      1      
iter:   8  21:07:51         -4.12    -4.341351    2      1      

Converged after 8 iterations.

Dipole moment: (0.098558, -0.107941, 0.427609) |e|*Ang

Energy contributions relative to reference atoms: (reference = -26392.251304)

Kinetic:        +14.130839
Potential:      -12.525194
External:        +0.000000
XC:              -5.953130
Entropy (-ST):   -0.038541
Local:           +0.025404
--------------------------
Free energy:     -4.360622
Extrapolated:    -4.341351

Fermi level: -2.62621

 Band  Eigenvalues  Occupancy
    0     -4.57417    2.00000
    1     -3.13770    1.99993
    2     -2.77563    1.90409
    3     -2.47683    0.09598
    4     -1.74112    0.00000
    5     -1.61919    0.00000
    6      1.50354    0.00000
    7      2.37524    0.00000
    8      2.61823    0.00000
    9      2.88071    0.00000

Gap: 0.299 eV
Transition (v -> c):
  (s=0, k=0, n=2, [0.00, 0.00, 0.00]) -> (s=0, k=0, n=3, [0.00, 0.00, 0.00])

Forces in eV/Ang:
  0 Na    0.10147   -0.14385   -0.04690
  1 Na   -0.10105    0.14347    0.05059
  2 Na    0.10550    0.12082   -0.11151
  3 Na   -0.13092   -0.14078    0.11001
  4 Na   -0.15454   -0.06721   -0.09869
  5 Na    0.18206    0.08554    0.09591

System changes: positions 

Initializing position-dependent things.

Density initialized from wave functions
           .--------------------------------------.  
          /|                                      |  
         / |                                      |  
        /  |                                      |  
       /   |                                      |  
      /    |                                      |  
     /     |                                      |  
    /      |                                      |  
   /       |                                      |  
  /        |                                      |  
 *         |                                      |  
 |         |                                      |  
 |         |                                      |  
 |         |             Na      Na               |  
 |         |                                      |  
 |         |       Na                             |  
 |         |               Na                     |  
 |         |                Na                    |  
 |         |         Na                           |  
 |         |                                      |  
 |         .--------------------------------------.  
 |        /                                      /   
 |       /                                      /    
 |      /                                      /     
 |     /                                      /      
 |    /                                      /       
 |   /                                      /        
 |  /                                      /         
 | /                                      /          
 |/                                      /           
 *--------------------------------------*            

Positions:
   0 Na     7.527765    8.419659    9.331073    ( 0.0000,  0.0000,  0.0000)
   1 Na     9.116157    6.163845    8.406894    ( 0.0000,  0.0000,  0.0000)
   2 Na     6.020730    5.382415    9.559807    ( 0.0000,  0.0000,  0.0000)
   3 Na     8.905840    8.938590    5.674107    ( 0.0000,  0.0000,  0.0000)
   4 Na    10.893810    8.922690    9.308364    ( 0.0000,  0.0000,  0.0000)
   5 Na     6.352611    7.118057    5.788452    ( 0.0000,  0.0000,  0.0000)

Unit cell:
           periodic     x           y           z      points  spacing
  1. axis:    no    16.000000    0.000000    0.000000    64     0.2500
  2. axis:    no     0.000000   16.000000    0.000000    64     0.2500
  3. axis:    no     0.000000    0.000000   16.000000    64     0.2500

  Lengths:  16.000000  16.000000  16.000000
  Angles:   90.000000  90.000000  90.000000

Effective grid spacing dv^(1/3) = 0.2500

                     log10-error:    total        iterations:
           time      wfs    density  energy       fermi  poisson
iter:   1  21:07:52          +inf    -4.414315    3      1      
iter:   2  21:07:54         -1.32    -4.409453    3      1      
iter:   3  21:07:55         -1.54    -4.406920    3      1      
iter:   4  21:07:56         -2.02    -4.406225    3      1      
iter:   5  21:07:57         -2.60    -4.406220    2      1      
iter:   6  21:07:58         -2.77    -4.406261    2      1      
iter:   7  21:07:59         -3.48    -4.406269    1      1      
iter:   8  21:08:01         -3.76    -4.406274    1      1      
iter:   9  21:08:02         -4.09    -4.406273    1      1      

Converged after 9 iterations.

Dipole moment: (0.111955, -0.124317, 0.501866) |e|*Ang

Energy contributions relative to reference atoms: (reference = -26392.251304)

Kinetic:        +19.720859
Potential:      -17.074172
External:        +0.000000
XC:              -7.078594
Entropy (-ST):   -0.008080
Local:           +0.029674
--------------------------
Free energy:     -4.410313
Extrapolated:    -4.406273

Fermi level: -2.61150

 Band  Eigenvalues  Occupancy
    0     -4.61728    2.00000
    1     -3.10931    1.99991
    2     -2.86174    1.98668
    3     -2.36163    0.01342
    4     -1.66811    0.00000
    5     -1.51156    0.00000
    6      1.47523    0.00000
    7      2.08058    0.00000
    8      2.37340    0.00000
    9      3.03119    0.00000

Gap: 0.500 eV
Transition (v -> c):
  (s=0, k=0, n=2, [0.00, 0.00, 0.00]) -> (s=0, k=0, n=3, [0.00, 0.00, 0.00])

Forces in eV/Ang:
  0 Na   -0.07693    0.10861    0.02546
  1 Na    0.06418   -0.08932   -0.08419
  2 Na    0.00388    0.04048   -0.07561
  3 Na    0.03654   -0.01901    0.10329
  4 Na   -0.04785    0.00000   -0.07629
  5 Na    0.01931   -0.03714    0.10453

System changes: positions 

Initializing position-dependent things.

Density initialized from wave functions
           .--------------------------------------.  
          /|                                      |  
         / |                                      |  
        /  |                                      |  
       /   |                                      |  
      /    |                                      |  
     /     |                                      |  
    /      |                                      |  
   /       |                                      |  
  /        |                                      |  
 *         |                                      |  
 |         |                                      |  
 |         |                                      |  
 |         |             Na      Na               |  
 |         |                                      |  
 |         |       Na                             |  
 |         |               Na                     |  
 |         |                 Na                   |  
 |         |         Na                           |  
 |         |                                      |  
 |         .--------------------------------------.  
 |        /                                      /   
 |       /                                      /    
 |      /                                      /     
 |     /                                      /      
 |    /                                      /       
 |   /                                      /        
 |  /                                      /         
 | /                                      /          
 |/                                      /           
 *--------------------------------------*            

Positions:
   0 Na     7.464236    8.504317    9.232586    ( 0.0000,  0.0000,  0.0000)
   1 Na     9.138821    6.128085    8.269378    ( 0.0000,  0.0000,  0.0000)
   2 Na     6.034843    5.407827    9.525638    ( 0.0000,  0.0000,  0.0000)
   3 Na     8.993118    8.954262    5.813527    ( 0.0000,  0.0000,  0.0000)
   4 Na    10.862087    8.914333    9.277880    ( 0.0000,  0.0000,  0.0000)
   5 Na     6.329550    7.037094    5.939649    ( 0.0000,  0.0000,  0.0000)

Unit cell:
           periodic     x           y           z      points  spacing
  1. axis:    no    16.000000    0.000000    0.000000    64     0.2500
  2. axis:    no     0.000000   16.000000    0.000000    64     0.2500
  3. axis:    no     0.000000    0.000000   16.000000    64     0.2500

  Lengths:  16.000000  16.000000  16.000000
  Angles:   90.000000  90.000000  90.000000

Effective grid spacing dv^(1/3) = 0.2500

                     log10-error:    total        iterations:
           time      wfs    density  energy       fermi  poisson
iter:   1  21:08:04          +inf    -4.447950    2      1      
iter:   2  21:08:05         -1.49    -4.442740    2      1      
iter:   3  21:08:06         -1.80    -4.440961    2      1      
iter:   4  21:08:07         -2.17    -4.441211    2      1      
iter:   5  21:08:08         -2.80    -4.441151    2      1      
iter:   6  21:08:09         -2.97    -4.441093    2      1      
iter:   7  21:08:10         -3.61    -4.441104    2      1      
iter:   8  21:08:12         -4.04    -4.441104    1      1      

Converged after 8 iterations.

Dipole moment: (0.106134, -0.116169, 0.454176) |e|*Ang

Energy contributions relative to reference atoms: (reference = -26392.251304)

Kinetic:        +18.728061
Potential:      -16.209020
External:        +0.000000
XC:              -6.976609
Entropy (-ST):   -0.026310
Local:           +0.029619
--------------------------
Free energy:     -4.454259
Extrapolated:    -4.441104

Fermi level: -2.61724

 Band  Eigenvalues  Occupancy
    0     -4.65490    2.00000
    1     -3.14911    1.99995
    2     -2.79273    1.94193
    3     -2.44179    0.05812
    4     -1.66674    0.00000
    5     -1.51430    0.00000
    6      1.29554    0.00000
    7      2.01530    0.00000
    8      2.39172    0.00000
    9      2.94429    0.00000

Gap: 0.351 eV
Transition (v -> c):
  (s=0, k=0, n=2, [0.00, 0.00, 0.00]) -> (s=0, k=0, n=3, [0.00, 0.00, 0.00])

Forces in eV/Ang:
  0 Na    0.01173   -0.01865   -0.00083
  1 Na   -0.01736    0.02234   -0.00809
  2 Na    0.02541    0.04994   -0.06735
  3 Na   -0.03713   -0.05786    0.06904
  4 Na   -0.05857   -0.01303   -0.06378
  5 Na    0.07535    0.01836    0.06842

System changes: positions 

Initializing position-dependent things.

Density initialized from wave functions
           .--------------------------------------.  
          /|                                      |  
         / |                                      |  
        /  |                                      |  
       /   |                                      |  
      /    |                                      |  
     /     |                                      |  
    /      |                                      |  
   /       |                                      |  
  /        |                                      |  
 *         |                                      |  
 |         |                                      |  
 |         |                                      |  
 |         |            Na       Na               |  
 |         |                                      |  
 |         |       Na                             |  
 |         |               Na                     |  
 |         |                Na                    |  
 |         |         Na                           |  
 |         |                                      |  
 |         .--------------------------------------.  
 |        /                                      /   
 |       /                                      /    
 |      /                                      /     
 |     /                                      /      
 |    /                                      /       
 |   /                                      /        
 |  /                                      /         
 | /                                      /          
 |/                                      /           
 *--------------------------------------*            

Positions:
   0 Na     7.455107    8.517849    9.217019    ( 0.0000,  0.0000,  0.0000)
   1 Na     9.142979    6.119148    8.241231    ( 0.0000,  0.0000,  0.0000)
   2 Na     6.059363    5.441573    9.488168    ( 0.0000,  0.0000,  0.0000)
   3 Na     8.984714    8.924746    5.873041    ( 0.0000,  0.0000,  0.0000)
   4 Na    10.817670    8.898114    9.244418    ( 0.0000,  0.0000,  0.0000)
   5 Na     6.361964    7.038914    5.994090    ( 0.0000,  0.0000,  0.0000)

Unit cell:
           periodic     x           y           z      points  spacing
  1. axis:    no    16.000000    0.000000    0.000000    64     0.2500
  2. axis:    no     0.000000   16.000000    0.000000    64     0.2500
  3. axis:    no     0.000000    0.000000   16.000000    64     0.2500

  Lengths:  16.000000  16.000000  16.000000
  Angles:   90.000000  90.000000  90.000000

Effective grid spacing dv^(1/3) = 0.2500

                     log10-error:    total        iterations:
           time      wfs    density  energy       fermi  poisson
iter:   1  21:08:13          +inf    -4.453513    3      1      
iter:   2  21:08:14         -2.25    -4.453806    2      1      
iter:   3  21:08:15         -2.42    -4.453956    2      1      
iter:   4  21:08:17         -2.71    -4.453894    2      1      
iter:   5  21:08:18         -3.42    -4.453877    1      1      
iter:   6  21:08:19         -3.72    -4.453872    2      1      
iter:   7  21:08:20         -4.12    -4.453875    1      1      

Converged after 7 iterations.

Dipole moment: (0.104532, -0.114311, 0.431811) |e|*Ang

Energy contributions relative to reference atoms: (reference = -26392.251304)

Kinetic:        +19.946646
Potential:      -17.154516
External:        +0.000000
XC:              -7.260544
Entropy (-ST):   -0.033429
Local:           +0.031254
--------------------------
Free energy:     -4.470589
Extrapolated:    -4.453875

Fermi level: -2.62423

 Band  Eigenvalues  Occupancy
    0     -4.68707    2.00000
    1     -3.16110    1.99996
    2     -2.78353    1.92060
    3     -2.46496    0.07944
    4     -1.63911    0.00000
    5     -1.47758    0.00000
    6      1.18301    0.00000
    7      1.90410    0.00000
    8      2.33977    0.00000
    9      2.91997    0.00000

Gap: 0.319 eV
Transition (v -> c):
  (s=0, k=0, n=2, [0.00, 0.00, 0.00]) -> (s=0, k=0, n=3, [0.00, 0.00, 0.00])

Forces in eV/Ang:
  0 Na    0.01270   -0.02297    0.01048
  1 Na   -0.01862    0.02171    0.00524
  2 Na    0.00316    0.02665   -0.04893
  3 Na   -0.00118   -0.02051    0.03796
  4 Na   -0.02635    0.00185   -0.04690
  5 Na    0.02876   -0.00579    0.04278

System changes: positions 

Initializing position-dependent things.

Density initialized from wave functions
           .--------------------------------------.  
          /|                                      |  
         / |                                      |  
        /  |                                      |  
       /   |                                      |  
      /    |                                      |  
     /     |                                      |  
    /      |                                      |  
   /       |                                      |  
  /        |                                      |  
 *         |                                      |  
 |         |                                      |  
 |         |                                      |  
 |         |             Na      Na               |  
 |         |                                      |  
 |         |       Na                             |  
 |         |               Na                     |  
 |         |                Na                    |  
 |         |         Na                           |  
 |         |                                      |  
 |         .--------------------------------------.  
 |        /                                      /   
 |       /                                      /    
 |      /                                      /     
 |     /                                      /      
 |    /                                      /       
 |   /                                      /        
 |  /                                      /         
 | /                                      /          
 |/                                      /           
 *--------------------------------------*            

Positions:
   0 Na     7.453324    8.540368    9.330918    ( 0.0000,  0.0000,  0.0000)
   1 Na     9.199896    6.012977    8.229203    ( 0.0000,  0.0000,  0.0000)
   2 Na     6.031294    5.521275    9.282632    ( 0.0000,  0.0000,  0.0000)
   3 Na     8.832132    8.717658    6.063684    ( 0.0000,  0.0000,  0.0000)
   4 Na    10.705701    8.921705    9.046691    ( 0.0000,  0.0000,  0.0000)
   5 Na     6.570774    7.154687    6.118010    ( 0.0000,  0.0000,  0.0000)

Unit cell:
           periodic     x           y           z      points  spacing
  1. axis:    no    16.000000    0.000000    0.000000    64     0.2500
  2. axis:    no     0.000000   16.000000    0.000000    64     0.2500
  3. axis:    no     0.000000    0.000000   16.000000    64     0.2500

  Lengths:  16.000000  16.000000  16.000000
  Angles:   90.000000  90.000000  90.000000

Effective grid spacing dv^(1/3) = 0.2500

                     log10-error:    total        iterations:
           time      wfs    density  energy       fermi  poisson
iter:   1  21:08:22          +inf    -4.343981    3      1      
iter:   2  21:08:23         -0.88    -4.328425    3      1      
iter:   3  21:08:24         -1.52    -4.323272    2      1      
iter:   4  21:08:25         -1.77    -4.318679    2      1      
iter:   5  21:08:26         -2.21    -4.319898    2      1      
iter:   6  21:08:27         -2.60    -4.319747    2      1      
iter:   7  21:08:28         -2.86    -4.319757    2      1      
iter:   8  21:08:30         -3.15    -4.319795    1      1      
iter:   9  21:08:31         -3.71    -4.319797    2      1      
iter:  10  21:08:32         -4.13    -4.319795    1      1      

Converged after 10 iterations.

Dipole moment: (0.132036, -0.148842, 0.385098) |e|*Ang

Energy contributions relative to reference atoms: (reference = -26392.251304)

Kinetic:        +24.849959
Potential:      -20.937460
External:        +0.000000
XC:              -8.238151
Entropy (-ST):   -0.058403
Local:           +0.035059
--------------------------
Free energy:     -4.348997
Extrapolated:    -4.319795

Fermi level: -2.67106

 Band  Eigenvalues  Occupancy
    0     -4.77632    2.00000
    1     -3.17629    1.99992
    2     -2.78963    1.82922
    3     -2.55253    0.17086
[...]
iter:   3  23:00:47         -2.47    -4.883599    2      1      
iter:   4  23:00:48         -2.68    -4.883587    2      1      
iter:   5  23:00:49         -3.36    -4.883587    1      1      
iter:   6  23:00:50         -3.57    -4.883586    1      1      
iter:   7  23:00:51         -4.23    -4.883586    1      1      

Converged after 7 iterations.

Dipole moment: (0.006369, 0.103455, 0.084211) |e|*Ang

Energy contributions relative to reference atoms: (reference = -26392.251304)

Kinetic:        +20.341849
Potential:      -17.906738
External:        +0.000000
XC:              -7.343844
Entropy (-ST):   -0.000008
Local:           +0.025151
--------------------------
Free energy:     -4.883590
Extrapolated:    -4.883586

Fermi level: -2.39414

 Band  Eigenvalues  Occupancy
    0     -4.35621    2.00000
    1     -3.09006    2.00000
    2     -3.05405    2.00000
    3     -1.75212    0.00001
    4     -1.56355    0.00000
    5     -1.54664    0.00000
    6      1.90631    0.00000
    7      1.93314    0.00000
    8      2.18261    0.00000
    9      3.26674    0.00000

Gap: 1.302 eV
Transition (v -> c):
  (s=0, k=0, n=2, [0.00, 0.00, 0.00]) -> (s=0, k=0, n=3, [0.00, 0.00, 0.00])

Forces in eV/Ang:
  0 Na   -0.00114   -0.00187    0.01604
  1 Na    0.00343   -0.01838   -0.01394
  2 Na    0.02842    0.01189   -0.00962
  3 Na    0.00663   -0.02988   -0.00373
  4 Na   -0.02729    0.01775    0.01294
  5 Na   -0.00935    0.02118   -0.00318

System changes: positions 

Initializing position-dependent things.

Density initialized from wave functions
           .--------------------------------------.  
          /|                                      |  
         / |                                      |  
        /  |                                      |  
       /   |                                      |  
      /    |                                      |  
     /     |                                      |  
    /      |                                      |  
   /       |                                      |  
  /        |                                      |  
 *         |                                      |  
 |         |                                      |  
 |         |                                      |  
 |         |                                      |  
 |         |                                      |  
 |         |            NaNa                      |  
 |         |      Na           Na                 |  
 |         |          Na                          |  
 |         |                  Na                  |  
 |         |                                      |  
 |         .--------------------------------------.  
 |        /                                      /   
 |       /                                      /    
 |      /                                      /     
 |     /                                      /      
 |    /                                      /       
 |   /                                      /        
 |  /                                      /         
 | /                                      /          
 |/                                      /           
 *--------------------------------------*            

Positions:
   0 Na     9.734983    8.605536    5.288512    ( 0.0000,  0.0000,  0.0000)
   1 Na     6.235010    9.025151    5.502900    ( 0.0000,  0.0000,  0.0000)
   2 Na     8.076111    8.197331    8.033840    ( 0.0000,  0.0000,  0.0000)
   3 Na     7.931443    5.405619    9.669948    ( 0.0000,  0.0000,  0.0000)
   4 Na     5.155110    6.790589    8.016864    ( 0.0000,  0.0000,  0.0000)
   5 Na    10.769063    6.381864    7.818018    ( 0.0000,  0.0000,  0.0000)

Unit cell:
           periodic     x           y           z      points  spacing
  1. axis:    no    16.000000    0.000000    0.000000    64     0.2500
  2. axis:    no     0.000000   16.000000    0.000000    64     0.2500
  3. axis:    no     0.000000    0.000000   16.000000    64     0.2500

  Lengths:  16.000000  16.000000  16.000000
  Angles:   90.000000  90.000000  90.000000

Effective grid spacing dv^(1/3) = 0.2500

                     log10-error:    total        iterations:
           time      wfs    density  energy       fermi  poisson
iter:   1  23:00:53          +inf    -4.886585    1      1      
iter:   2  23:00:54         -2.18    -4.886360    1      1      
iter:   3  23:00:55         -2.70    -4.886348    1      1      
iter:   4  23:00:56         -2.86    -4.886343    1      1      
iter:   5  23:00:57         -3.56    -4.886343    1      1      
iter:   6  23:00:58         -3.74    -4.886343    1      1      
iter:   7  23:00:59         -4.44    -4.886343    1      1      

Converged after 7 iterations.

Dipole moment: (0.008517, 0.101717, 0.081634) |e|*Ang

Energy contributions relative to reference atoms: (reference = -26392.251304)

Kinetic:        +20.472649
Potential:      -18.013264
External:        +0.000000
XC:              -7.371076
Entropy (-ST):   -0.000007
Local:           +0.025352
--------------------------
Free energy:     -4.886346
Extrapolated:    -4.886343

Fermi level: -2.39052

 Band  Eigenvalues  Occupancy
    0     -4.35623    2.00000
    1     -3.08931    2.00000
    2     -3.05787    2.00000
    3     -1.74222    0.00000
    4     -1.55806    0.00000
    5     -1.55173    0.00000
    6      1.90910    0.00000
    7      1.92235    0.00000
    8      2.18971    0.00000
    9      3.27287    0.00000

Gap: 1.316 eV
Transition (v -> c):
  (s=0, k=0, n=2, [0.00, 0.00, 0.00]) -> (s=0, k=0, n=3, [0.00, 0.00, 0.00])

Forces in eV/Ang:
  0 Na    0.01115    0.00270   -0.00475
  1 Na   -0.00563   -0.01544   -0.01142
  2 Na    0.00607    0.00710    0.01056
  3 Na   -0.00267   -0.01980   -0.00669
  4 Na   -0.00938    0.01454    0.01176
  5 Na    0.00148    0.01071   -0.00101

System changes: positions 

Initializing position-dependent things.

Density initialized from wave functions
           .--------------------------------------.  
          /|                                      |  
         / |                                      |  
        /  |                                      |  
       /   |                                      |  
      /    |                                      |  
     /     |                                      |  
    /      |                                      |  
   /       |                                      |  
  /        |                                      |  
 *         |                                      |  
 |         |                                      |  
 |         |                                      |  
 |         |                                      |  
 |         |                                      |  
 |         |            NaNa                      |  
 |         |      Na           Na                 |  
 |         |                                      |  
 |         |          Na      Na                  |  
 |         |                                      |  
 |         .--------------------------------------.  
 |        /                                      /   
 |       /                                      /    
 |      /                                      /     
 |     /                                      /      
 |    /                                      /       
 |   /                                      /        
 |  /                                      /         
 | /                                      /          
 |/                                      /           
 *--------------------------------------*            

Positions:
   0 Na     9.737880    8.612785    5.299076    ( 0.0000,  0.0000,  0.0000)
   1 Na     6.243430    9.001027    5.486020    ( 0.0000,  0.0000,  0.0000)
   2 Na     8.081809    8.192080    8.027120    ( 0.0000,  0.0000,  0.0000)
   3 Na     7.939434    5.383348    9.652496    ( 0.0000,  0.0000,  0.0000)
   4 Na     5.129181    6.819638    8.042489    ( 0.0000,  0.0000,  0.0000)
   5 Na    10.771808    6.397509    7.821393    ( 0.0000,  0.0000,  0.0000)

Unit cell:
           periodic     x           y           z      points  spacing
  1. axis:    no    16.000000    0.000000    0.000000    64     0.2500
  2. axis:    no     0.000000   16.000000    0.000000    64     0.2500
  3. axis:    no     0.000000    0.000000   16.000000    64     0.2500

  Lengths:  16.000000  16.000000  16.000000
  Angles:   90.000000  90.000000  90.000000

Effective grid spacing dv^(1/3) = 0.2500

                     log10-error:    total        iterations:
           time      wfs    density  energy       fermi  poisson
iter:   1  23:01:01          +inf    -4.887900    1      1      
iter:   2  23:01:02         -2.27    -4.887747    1      1      
iter:   3  23:01:03         -2.79    -4.887739    1      1      
iter:   4  23:01:05         -2.95    -4.887735    1      1      
iter:   5  23:01:06         -3.68    -4.887735    1      1      
iter:   6  23:01:07         -3.85    -4.887735    1      1      
iter:   7  23:01:08         -4.61    -4.887735    1      1      

Converged after 7 iterations.

Dipole moment: (0.010451, 0.100679, 0.080808) |e|*Ang

Energy contributions relative to reference atoms: (reference = -26392.251304)

Kinetic:        +20.456541
Potential:      -18.001972
External:        +0.000000
XC:              -7.367609
Entropy (-ST):   -0.000007
Local:           +0.025307
--------------------------
Free energy:     -4.887739
Extrapolated:    -4.887735

Fermi level: -2.38869

 Band  Eigenvalues  Occupancy
    0     -4.35434    2.00000
    1     -3.08685    2.00000
    2     -3.06146    2.00000
    3     -1.73684    0.00000
    4     -1.56251    0.00000
    5     -1.54942    0.00000
    6      1.91500    0.00000
    7      1.91930    0.00000
    8      2.20019    0.00000
    9      3.27500    0.00000

Gap: 1.325 eV
Transition (v -> c):
  (s=0, k=0, n=2, [0.00, 0.00, 0.00]) -> (s=0, k=0, n=3, [0.00, 0.00, 0.00])

Forces in eV/Ang:
  0 Na    0.01689    0.00635   -0.01839
  1 Na   -0.00920   -0.01304   -0.00460
  2 Na   -0.01541    0.00167    0.02198
  3 Na   -0.00957   -0.00762   -0.01066
  4 Na    0.00835    0.01177    0.00870
  5 Na    0.01008    0.00064    0.00145

System changes: positions 

Initializing position-dependent things.

Density initialized from wave functions
           .--------------------------------------.  
          /|                                      |  
         / |                                      |  
        /  |                                      |  
       /   |                                      |  
      /    |                                      |  
     /     |                                      |  
    /      |                                      |  
   /       |                                      |  
  /        |                                      |  
 *         |                                      |  
 |         |                                      |  
 |         |                                      |  
 |         |                                      |  
 |         |                                      |  
 |         |            NaNa                      |  
 |         |      Na           Na                 |  
 |         |                                      |  
 |         |          Na      Na                  |  
 |         |                                      |  
 |         .--------------------------------------.  
 |        /                                      /   
 |       /                                      /    
 |      /                                      /     
 |     /                                      /      
 |    /                                      /       
 |   /                                      /        
 |  /                                      /         
 | /                                      /          
 |/                                      /           
 *--------------------------------------*            

Positions:
   0 Na     9.750933    8.622200    5.294768    ( 0.0000,  0.0000,  0.0000)
   1 Na     6.243070    8.976609    5.469876    ( 0.0000,  0.0000,  0.0000)
   2 Na     8.077959    8.189705    8.036261    ( 0.0000,  0.0000,  0.0000)
   3 Na     7.939166    5.362131    9.634366    ( 0.0000,  0.0000,  0.0000)
   4 Na     5.114413    6.847032    8.066798    ( 0.0000,  0.0000,  0.0000)
   5 Na    10.780138    6.408997    7.824574    ( 0.0000,  0.0000,  0.0000)

Unit cell:
           periodic     x           y           z      points  spacing
  1. axis:    no    16.000000    0.000000    0.000000    64     0.2500
  2. axis:    no     0.000000   16.000000    0.000000    64     0.2500
  3. axis:    no     0.000000    0.000000   16.000000    64     0.2500

  Lengths:  16.000000  16.000000  16.000000
  Angles:   90.000000  90.000000  90.000000

Effective grid spacing dv^(1/3) = 0.2500

                     log10-error:    total        iterations:
           time      wfs    density  energy       fermi  poisson
iter:   1  23:01:10          +inf    -4.889105    1      1      
iter:   2  23:01:11         -2.73    -4.889096    1      1      
iter:   3  23:01:12         -2.92    -4.889092    1      1      
iter:   4  23:01:13         -3.28    -4.889091    1      1      
iter:   5  23:01:14         -3.96    -4.889091    1      1      
iter:   6  23:01:15         -4.19    -4.889091    1      1      

Converged after 6 iterations.

Dipole moment: (0.009500, 0.100068, 0.083949) |e|*Ang

Energy contributions relative to reference atoms: (reference = -26392.251304)

Kinetic:        +20.200088
Potential:      -17.799104
External:        +0.000000
XC:              -7.315111
Entropy (-ST):   -0.000007
Local:           +0.025039
--------------------------
Free energy:     -4.889094
Extrapolated:    -4.889091

Fermi level: -2.38932

 Band  Eigenvalues  Occupancy
    0     -4.34892    2.00000
    1     -3.08165    2.00000
    2     -3.06499    2.00000
    3     -1.73793    0.00000
    4     -1.56633    0.00000
    5     -1.55160    0.00000
    6      1.92542    0.00000
    7      1.93234    0.00000
    8      2.21097    0.00000
    9      3.27195    0.00000

Gap: 1.327 eV
Transition (v -> c):
  (s=0, k=0, n=2, [0.00, 0.00, 0.00]) -> (s=0, k=0, n=3, [0.00, 0.00, 0.00])

Forces in eV/Ang:
  0 Na    0.00467    0.00336   -0.00669
  1 Na   -0.00107   -0.01189    0.00372
  2 Na   -0.01134    0.00235    0.00603
  3 Na   -0.00876   -0.00057   -0.01144
  4 Na    0.01122    0.00698    0.00438
  5 Na    0.00568   -0.00029    0.00124

Timing:                                       incl.     excl.
--------------------------------------------------------------------
Basic WFS set positions:                      0.495     0.250   0.0% |
 Redistribute:                                0.245     0.245   0.0% |
Basis functions set positions:               21.672    21.672   0.3% |
Forces:                                     275.707    61.297   0.9% |
 LCAO forces:                               214.410     0.257   0.0% |
  Atomic Hamiltonian force:                   0.922     0.922   0.0% |
  Initial:                                    0.071     0.005   0.0% |
   Get density matrix:                        0.066     0.066   0.0% |
  Paw correction:                             0.800     0.800   0.0% |
  Potential:                                195.111   195.111   2.8% ||
  TCI derivative:                            17.240    17.240   0.2% |
  Wait for sum:                               0.008     0.008   0.0% |
LCAO WFS Initialize:                        729.980     0.100   0.0% |
 Density initialized from wave functions:    84.746    50.924   0.7% |
  Calculate density matrix:                   0.057     0.057   0.0% |
  Construct density:                         33.747    33.747   0.5% |
  Symmetrize density:                         0.019     0.019   0.0% |
 Hamiltonian:                               645.134     0.087   0.0% |
  Atomic:                                    77.036     0.762   0.0% |
   XC Correction:                            76.274    76.274   1.1% |
  Calculate atomic Hamiltonians:              3.521     3.521   0.1% |
  Communicate:                                0.006     0.006   0.0% |
  Hartree integrate/restrict:                25.245    25.245   0.4% |
  Initialize Hamiltonian:                     0.000     0.000   0.0% |
  Poisson:                                  197.146    13.681   0.2% |
   Communicate bwd 0:                        23.155    23.155   0.3% |
   Communicate bwd 1:                        13.790    13.790   0.2% |
   Communicate fwd 0:                        24.517    24.517   0.4% |
   Communicate fwd 1:                        28.313    28.313   0.4% |
   fft:                                      26.428    26.428   0.4% |
   fft2:                                     67.262    67.262   1.0% |
  XC 3D grid:                               338.159   338.159   4.9% |-|
  vbar:                                       3.933     3.933   0.1% |
P tci:                                        8.008     8.008   0.1% |
Redistribute:                                 0.127     0.127   0.0% |
SCF-cycle:                                 5796.131     3.775   0.1% |
 Density:                                   618.720     0.127   0.0% |
  Atomic density matrices:                    4.992     4.992   0.1% |
  Mix:                                      353.575   353.575   5.1% |-|
  Multipole moments:                          1.232     1.232   0.0% |
  Normalize:                                  1.660     1.660   0.0% |
  Pseudo density:                           257.133     4.300   0.1% |
   Calculate density matrix:                  0.275     0.275   0.0% |
   Construct density:                       252.419   252.419   3.6% ||
   Symmetrize density:                        0.139     0.139   0.0% |
 Hamiltonian:                              4832.539     0.637   0.0% |
  Atomic:                                   574.196     5.600   0.1% |
   XC Correction:                           568.596   568.596   8.2% |--|
  Calculate atomic Hamiltonians:             26.378    26.378   0.4% |
  Communicate:                                0.048     0.048   0.0% |
  Hartree integrate/restrict:               231.017   231.017   3.3% ||
  Poisson:                                 1469.251   102.232   1.5% ||
   Communicate bwd 0:                       172.955   172.955   2.5% ||
   Communicate bwd 1:                       102.540   102.540   1.5% ||
   Communicate fwd 0:                       181.704   181.704   2.6% ||
   Communicate fwd 1:                       211.466   211.466   3.0% ||
   fft:                                     196.562   196.562   2.8% ||
   fft2:                                    501.792   501.792   7.2% |--|
  XC 3D grid:                              2502.404  2502.404  36.0% |-------------|
  vbar:                                      28.609    28.609   0.4% |
 LCAO eigensolver:                          341.097     0.537   0.0% |
  Calculate projections:                      0.344     0.344   0.0% |
  DenseAtomicCorrection:                      1.762     1.762   0.0% |
  Distribute overlap matrix:                  0.074     0.074   0.0% |
  Orbital Layouts:                            1.731     1.731   0.0% |
  Potential matrix:                         336.648   336.648   4.8% |-|
ST tci:                                       2.426     2.426   0.0% |
Set symmetry:                                 0.001     0.001   0.0% |
TCI: Evaluate splines:                        0.024     0.024   0.0% |
mktci:                                        1.757     1.757   0.0% |
Other:                                      108.012   108.012   1.6% ||
--------------------------------------------------------------------
Total:                                               6944.340 100.0%

Date: Wed Jan 29 23:01:16 2020
