LAMMPS data file via write_data, version 7 Aug 2019, timestep = 4

4 atoms
1 atom types

-2.2911138281318022e-08 3.6390298229111382e+00 xlo xhi
-2.2911138281318022e-08 3.6390298229111382e+00 ylo yhi
-2.2911138281318022e-08 3.6390298229111382e+00 zlo zhi

Masses

1 63.546

Atoms # atomic

1 1 -2.2911138277620214e-08 -2.2911138277603233e-08 -2.2911138277611720e-08 0 0 0
2 1 1.8195148999999999e+00 1.8195148999999999e+00 -2.2911138277567879e-08 0 0 0
3 1 1.8195148999999999e+00 -2.2911138277510897e-08 1.8195148999999999e+00 0 0 0
4 1 -2.2911138277709456e-08 1.8195148999999999e+00 1.8195148999999999e+00 0 0 0

Velocities

1 0.0000000000000000e+00 0.0000000000000000e+00 0.0000000000000000e+00
2 0.0000000000000000e+00 0.0000000000000000e+00 0.0000000000000000e+00
3 0.0000000000000000e+00 0.0000000000000000e+00 0.0000000000000000e+00
4 0.0000000000000000e+00 0.0000000000000000e+00 0.0000000000000000e+00
