
  ___ ___ ___ _ _ _  
 |   |   |_  | | | | 
 | | | | | . | | | | 
 |__ |  _|___|_____|  19.8.1
 |___|_|             

User:   ericlin@remote11.chalmers.se
Date:   Wed Jan 29 23:21:44 2020
Arch:   x86_64
Pid:    7867
Python: 3.7.4
gpaw:   /chalmers/users/ericlin/miniconda3/lib/python3.7/site-packages/gpaw
_gpaw:  /chalmers/users/ericlin/miniconda3/lib/python3.7/site-packages/
        _gpaw.cpython-37m-x86_64-linux-gnu.so
ase:    /chalmers/users/ericlin/miniconda3/lib/python3.7/site-packages/ase (version 3.19.0)
numpy:  /chalmers/users/ericlin/miniconda3/lib/python3.7/site-packages/numpy (version 1.18.1)
scipy:  /chalmers/users/ericlin/miniconda3/lib/python3.7/site-packages/scipy (version 1.3.2)
libxc:  4.3.4
units:  Angstrom and eV
cores:  1

Input parameters:
  basis: dzp
  h: 0.25
  mode: lcao
  nbands: 10
  occupations: {name: fermi-dirac,
                width: 0.05}
  setups: {Na: 1}

System changes: positions, numbers, cell, pbc, initial_charges, initial_magmoms 

Initialize ...

Na-setup:
  name: Sodium
  id: fa5c50181d04022fed15b2593599c257
  Z: 11
  valence: 1
  core: 10
  charge: 0.0
  file: /chalmers/users/ericlin/gpaw/gpaw-setups-0.9.20000/Na.1.LDA.gz
  compensation charges: gauss, rc=0.43, lmax=2
  cutoffs: 2.36(filt), 3.60(core),
  valence states:
                energy  radius
    3s(1.00)    -2.819   1.349
    3p(0.00)    -0.774   1.349
    *s          24.392   1.349

  LCAO basis set for Na:
    Name: 1.dzp
    File: /chalmers/users/ericlin/gpaw/gpaw-setups-0.9.20000/Na.1.dzp.basis.gz
    Number of radial functions: 3
    Number of spherical harmonics: 5
      l=0, rc=11.7656 Bohr: 3s-sz confined orbital
      l=0, rc=7.1094 Bohr: 3s-dz split-valence wave
      l=1, rc=11.7656 Bohr: p-type Gaussian polarization

Reference energy: -35189.668405

Spin-paired calculation

Occupation numbers:
  Fermi-Dirac: width=0.0500 eV

Convergence criteria:
  Maximum total energy change: 0.0005 eV / electron
  Maximum integral of absolute density change: 0.0001 electrons
  Maximum integral of absolute eigenstate change: 4e-08 eV^2
  Maximum number of iterations: 333

Symmetries present (total): 1

  ( 1  0  0)
  ( 0  1  0)
  ( 0  0  1)

1 k-point (Gamma)
1 k-point in the irreducible part of the Brillouin zone
       k-points in crystal coordinates                weights
   0:     0.00000000    0.00000000    0.00000000          1/1

Wave functions: LCAO
  Diagonalizer: Serial LAPACK
  Atomic Correction: dense with blas
  Datatype: float
 

Eigensolver
   LCAO using direct dense diagonalizer 

Densities:
  Coarse grid: 64*64*64 grid
  Fine grid: 128*128*128 grid
  Total Charge: 0.000000 

Density mixing:
  Method: separate
  Backend: pulay
  Linear mixing parameter: 0.25
  Mixing with 3 old densities
  No damping of long wave oscillations 

Hamiltonian:
  XC and Coulomb potentials evaluated on a 128*128*128 grid
  Using the LDA Exchange-Correlation functional
  Interpolation: tri-quintic (5. degree polynomial)
  Poisson solver: FastPoissonSolver using
    6*3+1=19 point O(h^6) finite-difference Laplacian stencil;
    FFT axes: [];
    FST axes: [0, 1, 2].
 

Memory estimate:
  Process memory now: 249.84 MiB
  Calculator: 137.65 MiB
    Density: 86.07 MiB
      Arrays: 50.70 MiB
      Localized functions: 23.92 MiB
      Mixer: 11.45 MiB
    Hamiltonian: 34.89 MiB
      Arrays: 33.16 MiB
      XC: 0.00 MiB
      Poisson: 0.00 MiB
      vbar: 1.73 MiB
    Wavefunctions: 16.70 MiB
      C [qnM]: 0.00 MiB
      S, T [2 x qmm]: 0.02 MiB
      P [aqMi]: 0.00 MiB
      BasisFunctions: 16.67 MiB
      Eigensolver: 0.00 MiB

Total number of cores used: 1

Number of atoms: 8
Number of atomic orbitals: 40
Number of bands in calculation: 10
Bands to converge: occupied states only
Number of valence electrons: 8

... initialized

Initializing position-dependent things.

Density initialized from atomic densities
           .--------------------------------------.  
          /|                                      |  
         / |                                      |  
        /  |                                      |  
       /   |                                      |  
      /    |                                      |  
     /     |                                      |  
    /      |                                      |  
   /       |                                      |  
  /        |                                      |  
 *         |                                      |  
 |         |               Na                     |  
 |         |                                      |  
 |         |                 Na                   |  
 |         |                                      |  
 |         |            Na    Na                  |  
 |         |                                      |  
 |         |                 Na                   |  
 |         |          Na Na                       |  
 |         |                                      |  
 |         .--------------------------------------.  
 |        /                                      /   
 |       /                                      /    
 |      /                                      /     
 |     /                                      /      
 |    /                                      /       
 |   /                                      /        
 |  /                                      /         
 | /                                      /          
 |/                                      /           
 *--------------------------------------*            

Positions:
   0 Na     7.161218    9.420287    7.505601    ( 0.0000,  0.0000,  0.0000)
   1 Na     9.158055    9.670758    5.450189    ( 0.0000,  0.0000,  0.0000)
   2 Na     7.486819    6.918138    8.869243    ( 0.0000,  0.0000,  0.0000)
   3 Na     6.425151    9.024590    4.759317    ( 0.0000,  0.0000,  0.0000)
   4 Na     8.296395    9.382206   10.142357    ( 0.0000,  0.0000,  0.0000)
   5 Na     8.069747    7.067029    6.067967    ( 0.0000,  0.0000,  0.0000)
   6 Na     9.891230    6.992536   10.438361    ( 0.0000,  0.0000,  0.0000)
   7 Na     9.822811    8.373175    7.922304    ( 0.0000,  0.0000,  0.0000)

Unit cell:
           periodic     x           y           z      points  spacing
  1. axis:    no    16.000000    0.000000    0.000000    64     0.2500
  2. axis:    no     0.000000   16.000000    0.000000    64     0.2500
  3. axis:    no     0.000000    0.000000   16.000000    64     0.2500

  Lengths:  16.000000  16.000000  16.000000
  Angles:   90.000000  90.000000  90.000000

Effective grid spacing dv^(1/3) = 0.2500

                     log10-error:    total        iterations:
           time      wfs    density  energy       fermi  poisson
iter:   1  23:21:48          +inf    -5.307644    3      1      
iter:   2  23:21:49         -0.49    -4.561001    33     1      
iter:   3  23:21:51         -0.87    -4.433561    32     1      
iter:   4  23:21:52         -1.24    -4.432476    2      1      
iter:   5  23:21:53         -1.35    -4.414555    4      1      
iter:   6  23:21:54         -1.94    -4.413682    2      1      
iter:   7  23:21:55         -2.23    -4.412995    3      1      
iter:   8  23:21:57         -2.60    -4.412825    3      1      
iter:   9  23:21:58         -2.94    -4.412854    2      1      
iter:  10  23:21:59         -3.22    -4.412872    2      1      
iter:  11  23:22:00         -3.52    -4.412894    2      1      
iter:  12  23:22:02         -3.85    -4.412903    2      1      
iter:  13  23:22:03         -4.06    -4.412906    2      1      

Converged after 13 iterations.

Dipole moment: (-0.009366, -0.001916, -0.013484) |e|*Ang

Energy contributions relative to reference atoms: (reference = -35189.668405)

Kinetic:        +67.805927
Potential:      -54.469339
External:        +0.000000
XC:             -17.785298
Entropy (-ST):   -0.109081
Local:           +0.090346
--------------------------
Free energy:     -4.467447
Extrapolated:    -4.412906

Fermi level: -2.76494

 Band  Eigenvalues  Occupancy
    0     -5.47236    2.00000
    1     -4.25694    2.00000
    2     -2.88032    1.81901
    3     -2.87865    1.81344
    4     -2.69039    0.36755
    5     -1.56554    0.00000
    6     -1.54939    0.00000
    7     -0.96153    0.00000
    8      0.26682    0.00000
    9      0.87275    0.00000

Gap: 0.188 eV
Transition (v -> c):
  (s=0, k=0, n=3, [0.00, 0.00, 0.00]) -> (s=0, k=0, n=4, [0.00, 0.00, 0.00])

Forces in eV/Ang:
  0 Na   -0.99086    0.97553    0.38758
  1 Na    0.92819    0.76410   -0.54245
  2 Na   -1.01650   -1.02711    0.23621
  3 Na   -0.81427    0.06463   -0.55703
  4 Na   -0.25898    1.03732    0.77441
  5 Na    0.12569   -1.36011   -0.54881
  6 Na    0.61615   -0.60654    0.48603
  7 Na    1.41079    0.15447   -0.23396

System changes: positions 

Initializing position-dependent things.

Density initialized from wave functions
           .--------------------------------------.  
          /|                                      |  
         / |                                      |  
        /  |                                      |  
       /   |                                      |  
      /    |                                      |  
     /     |                                      |  
    /      |                                      |  
   /       |                                      |  
  /        |                                      |  
 *         |                                      |  
 |         |               Na                     |  
 |         |                                      |  
 |         |                  Na                  |  
 |         |                                      |  
 |         |           Naa     Na                 |  
 |         |                                      |  
 |         |                  Na                  |  
 |         |          Na Na                       |  
 |         |                                      |  
 |         .--------------------------------------.  
 |        /                                      /   
 |       /                                      /    
 |      /                                      /     
 |     /                                      /      
 |    /                                      /       
 |   /                                      /        
 |  /                                      /         
 | /                                      /          
 |/                                      /           
 *--------------------------------------*            

Positions:
   0 Na     7.054938    9.524923    7.547173    ( 0.0000,  0.0000,  0.0000)
   1 Na     9.257613    9.752716    5.392006    ( 0.0000,  0.0000,  0.0000)
   2 Na     7.377789    6.807969    8.894579    ( 0.0000,  0.0000,  0.0000)
   3 Na     6.337811    9.031523    4.699570    ( 0.0000,  0.0000,  0.0000)
   4 Na     8.268617    9.493470   10.225421    ( 0.0000,  0.0000,  0.0000)
   5 Na     8.083228    6.921142    6.009101    ( 0.0000,  0.0000,  0.0000)
   6 Na     9.957318    6.927479   10.490493    ( 0.0000,  0.0000,  0.0000)
   7 Na     9.974133    8.389744    7.897210    ( 0.0000,  0.0000,  0.0000)

Unit cell:
           periodic     x           y           z      points  spacing
  1. axis:    no    16.000000    0.000000    0.000000    64     0.2500
  2. axis:    no     0.000000   16.000000    0.000000    64     0.2500
  3. axis:    no     0.000000    0.000000   16.000000    64     0.2500

  Lengths:  16.000000  16.000000  16.000000
  Angles:   90.000000  90.000000  90.000000

Effective grid spacing dv^(1/3) = 0.2500

                     log10-error:    total        iterations:
           time      wfs    density  energy       fermi  poisson
iter:   1  23:22:05          +inf    -5.564365    4      1      
iter:   2  23:22:06         -1.20    -5.562244    3      1      
iter:   3  23:22:07         -1.69    -5.559946    3      1      
iter:   4  23:22:08         -1.87    -5.558760    3      1      
iter:   5  23:22:10         -2.29    -5.558317    2      1      
iter:   6  23:22:11         -2.54    -5.558155    2      1      
iter:   7  23:22:12         -2.79    -5.558073    2      1      
iter:   8  23:22:13         -3.18    -5.558069    2      1      
iter:   9  23:22:14         -3.40    -5.558074    2      1      
iter:  10  23:22:16         -3.77    -5.558080    2      1      
iter:  11  23:22:17         -3.99    -5.558082    2      1      
iter:  12  23:22:18         -4.18    -5.558086    2      1      

Converged after 12 iterations.

Dipole moment: (-0.016444, -0.017705, -0.017210) |e|*Ang

Energy contributions relative to reference atoms: (reference = -35189.668405)

Kinetic:        +51.812921
Potential:      -42.349763
External:        +0.000000
XC:             -15.048341
Entropy (-ST):   -0.085913
Local:           +0.070053
--------------------------
Free energy:     -5.601043
Extrapolated:    -5.558086

Fermi level: -2.71381

 Band  Eigenvalues  Occupancy
    0     -5.26519    2.00000
    1     -4.12565    2.00000
    2     -2.85025    1.87742
    3     -2.84555    1.86614
    4     -2.61797    0.25645
    5     -1.59199    0.00000
    6     -1.55574    0.00000
    7     -0.95921    0.00000
    8      0.50213    0.00000
    9      0.93804    0.00000

Gap: 0.228 eV
Transition (v -> c):
  (s=0, k=0, n=3, [0.00, 0.00, 0.00]) -> (s=0, k=0, n=4, [0.00, 0.00, 0.00])

Forces in eV/Ang:
  0 Na   -0.53804    0.54666    0.20338
  1 Na    0.51059    0.43206   -0.30006
  2 Na   -0.59951   -0.52298    0.15008
  3 Na   -0.47154   -0.01696   -0.28067
  4 Na   -0.13456    0.58060    0.43104
  5 Na    0.12919   -0.73595   -0.31397
  6 Na    0.32520   -0.38016    0.22861
  7 Na    0.77808    0.09721   -0.11904

System changes: positions 

Initializing position-dependent things.

Density initialized from wave functions
           .--------------------------------------.  
          /|                                      |  
         / |                                      |  
        /  |                                      |  
       /   |                                      |  
      /    |                                      |  
     /     |                                      |  
    /      |                                      |  
   /       |                                      |  
  /        |                                      |  
 *         |                                      |  
 |         |               Na                     |  
 |         |                                      |  
 |         |                  Na                  |  
 |         |                                      |  
 |         |           Naa     Na                 |  
 |         |                                      |  
 |         |                  Na                  |  
 |         |             Na                       |  
 |         |          Na                          |  
 |         .--------------------------------------.  
 |        /                                      /   
 |       /                                      /    
 |      /                                      /     
 |     /                                      /      
 |    /                                      /       
 |   /                                      /        
 |  /                                      /         
 | /                                      /          
 |/                                      /           
 *--------------------------------------*            

Positions:
   0 Na     6.972175    9.608116    7.578832    ( 0.0000,  0.0000,  0.0000)
   1 Na     9.335806    9.818270    5.346140    ( 0.0000,  0.0000,  0.0000)
   2 Na     7.288084    6.725686    8.916512    ( 0.0000,  0.0000,  0.0000)
   3 Na     6.266831    9.031667    4.655245    ( 0.0000,  0.0000,  0.0000)
   4 Na     8.247598    9.581862   10.291168    ( 0.0000,  0.0000,  0.0000)
   5 Na     8.099880    6.807799    5.961650    ( 0.0000,  0.0000,  0.0000)
   6 Na    10.007837    6.871687   10.527524    ( 0.0000,  0.0000,  0.0000)
   7 Na    10.093184    8.403992    7.878477    ( 0.0000,  0.0000,  0.0000)

Unit cell:
           periodic     x           y           z      points  spacing
  1. axis:    no    16.000000    0.000000    0.000000    64     0.2500
  2. axis:    no     0.000000   16.000000    0.000000    64     0.2500
  3. axis:    no     0.000000    0.000000   16.000000    64     0.2500

  Lengths:  16.000000  16.000000  16.000000
  Angles:   90.000000  90.000000  90.000000

Effective grid spacing dv^(1/3) = 0.2500

                     log10-error:    total        iterations:
           time      wfs    density  energy       fermi  poisson
iter:   1  23:22:20          +inf    -6.069964    4      1      
iter:   2  23:22:21         -1.42    -6.070664    3      1      
iter:   3  23:22:23         -1.90    -6.070754    3      1      
iter:   4  23:22:24         -2.10    -6.070647    3      1      
iter:   5  23:22:25         -2.50    -6.070366    2      1      
iter:   6  23:22:26         -2.80    -6.070312    2      1      
iter:   7  23:22:27         -3.02    -6.070286    2      1      
iter:   8  23:22:29         -3.33    -6.070278    2      1      
iter:   9  23:22:30         -3.64    -6.070278    2      1      
iter:  10  23:22:31         -3.90    -6.070281    2      1      
iter:  11  23:22:32         -4.20    -6.070282    2      1      

Converged after 11 iterations.

Dipole moment: (-0.023781, -0.035536, -0.020440) |e|*Ang

Energy contributions relative to reference atoms: (reference = -35189.668405)

Kinetic:        +42.126214
Potential:      -34.973975
External:        +0.000000
XC:             -13.246064
Entropy (-ST):   -0.065472
Local:           +0.056279
--------------------------
Free energy:     -6.103018
Extrapolated:    -6.070282

Fermi level: -2.68267

 Band  Eigenvalues  Occupancy
    0     -5.10163    2.00000
    1     -4.02217    2.00000
    2     -2.84307    1.92227
    3     -2.83151    1.90303
    4     -2.56535    0.17470
    5     -1.62207    0.00000
    6     -1.56602    0.00000
    7     -0.96885    0.00000
    8      0.69082    0.00000
    9      1.02746    0.00000

Gap: 0.266 eV
Transition (v -> c):
  (s=0, k=0, n=3, [0.00, 0.00, 0.00]) -> (s=0, k=0, n=4, [0.00, 0.00, 0.00])

Forces in eV/Ang:
  0 Na   -0.30688    0.33478    0.11548
  1 Na    0.28389    0.25043   -0.16669
  2 Na   -0.37578   -0.26178    0.09545
  3 Na   -0.26934   -0.06615   -0.11860
  4 Na   -0.06753    0.33117    0.24109
  5 Na    0.12275   -0.41476   -0.18223
  6 Na    0.15263   -0.24944    0.07639
  7 Na    0.45858    0.07295   -0.06292

System changes: positions 

Initializing position-dependent things.

Density initialized from wave functions
           .--------------------------------------.  
          /|                                      |  
         / |                                      |  
        /  |                                      |  
       /   |                                      |  
      /    |                                      |  
     /     |                                      |  
    /      |                                      |  
   /       |                                      |  
  /        |                                      |  
 *         |                                      |  
 |         |               Na                     |  
 |         |                                      |  
 |         |                  Na                  |  
 |         |            Na                        |  
 |         |           Na      Na                 |  
 |         |                                      |  
 |         |                  Na                  |  
 |         |             Na                       |  
 |         |          Na                          |  
 |         .--------------------------------------.  
 |        /                                      /   
 |       /                                      /    
 |      /                                      /     
 |     /                                      /      
 |    /                                      /       
 |   /                                      /        
 |  /                                      /         
 | /                                      /          
 |/                                      /           
 *--------------------------------------*            

Positions:
   0 Na     6.910138    9.673625    7.602304    ( 0.0000,  0.0000,  0.0000)
   1 Na     9.393746    9.868352    5.312127    ( 0.0000,  0.0000,  0.0000)
   2 Na     7.215575    6.669233    8.934707    ( 0.0000,  0.0000,  0.0000)
   3 Na     6.212762    9.023741    4.627462    ( 0.0000,  0.0000,  0.0000)
   4 Na     8.233086    9.648604   10.340189    ( 0.0000,  0.0000,  0.0000)
   5 Na     8.119778    6.723496    5.925268    ( 0.0000,  0.0000,  0.0000)
   6 Na    10.041614    6.824650   10.548005    ( 0.0000,  0.0000,  0.0000)
   7 Na    10.184480    8.417084    7.865238    ( 0.0000,  0.0000,  0.0000)

Unit cell:
           periodic     x           y           z      points  spacing
  1. axis:    no    16.000000    0.000000    0.000000    64     0.2500
  2. axis:    no     0.000000   16.000000    0.000000    64     0.2500
  3. axis:    no     0.000000    0.000000   16.000000    64     0.2500

  Lengths:  16.000000  16.000000  16.000000
  Angles:   90.000000  90.000000  90.000000

Effective grid spacing dv^(1/3) = 0.2500

                     log10-error:    total        iterations:
           time      wfs    density  energy       fermi  poisson
iter:   1  23:22:34          +inf    -6.298903    4      1      
iter:   2  23:22:36         -1.57    -6.299609    3      1      
iter:   3  23:22:37         -2.08    -6.300130    2      1      
iter:   4  23:22:38         -2.30    -6.300274    2      1      
iter:   5  23:22:39         -2.63    -6.300114    2      1      
iter:   6  23:22:41         -3.05    -6.300094    2      1      
iter:   7  23:22:42         -3.27    -6.300090    2      1      
iter:   8  23:22:43         -3.51    -6.300085    2      1      
iter:   9  23:22:44         -3.96    -6.300086    2      1      
iter:  10  23:22:45         -4.17    -6.300088    2      1      

Converged after 10 iterations.

Dipole moment: (-0.030335, -0.051891, -0.023195) |e|*Ang

Energy contributions relative to reference atoms: (reference = -35189.668405)

Kinetic:        +36.228706
Potential:      -30.479824
External:        +0.000000
XC:             -12.071486
Entropy (-ST):   -0.049705
Local:           +0.047368
--------------------------
Free energy:     -6.324940
Extrapolated:    -6.300088

Fermi level: -2.66403

 Band  Eigenvalues  Occupancy
    0     -4.98267    2.00000
    1     -3.94620    2.00000
    2     -2.84788    1.95065
    3     -2.82900    1.92883
    4     -2.52668    0.12052
    5     -1.65174    0.00000
    6     -1.57790    0.00000
    7     -0.98465    0.00000
    8      0.87378    0.00000
    9      1.13505    0.00000

Gap: 0.302 eV
Transition (v -> c):
  (s=0, k=0, n=3, [0.00, 0.00, 0.00]) -> (s=0, k=0, n=4, [0.00, 0.00, 0.00])

Forces in eV/Ang:
  0 Na   -0.18377    0.22666    0.07333
  1 Na    0.16031    0.15042   -0.09137
  2 Na   -0.24741   -0.12361    0.05551
  3 Na   -0.14984   -0.09522   -0.02530
  4 Na   -0.03073    0.19447    0.13476
  5 Na    0.11222   -0.23876   -0.10079
  6 Na    0.05070   -0.17285   -0.01167
  7 Na    0.29283    0.06320   -0.03704

System changes: positions 

Initializing position-dependent things.

Density initialized from wave functions
           .--------------------------------------.  
          /|                                      |  
         / |                                      |  
        /  |                                      |  
       /   |                                      |  
      /    |                                      |  
     /     |                                      |  
    /      |                                      |  
   /       |                                      |  
  /        |                                      |  
 *         |                                      |  
 |         |               Na                     |  
 |         |                                      |  
 |         |                  Na                  |  
 |         |            Na                        |  
 |         |           Na      Na                 |  
 |         |                                      |  
 |         |                  Na                  |  
 |         |             Na                       |  
 |         |          Na                          |  
 |         .--------------------------------------.  
 |        /                                      /   
 |       /                                      /    
 |      /                                      /     
 |     /                                      /      
 |    /                                      /       
 |   /                                      /        
 |  /                                      /         
 | /                                      /          
 |/                                      /           
 *--------------------------------------*            

Positions:
   0 Na     6.880100    9.707167    7.614163    ( 0.0000,  0.0000,  0.0000)
   1 Na     9.421157    9.892530    5.296354    ( 0.0000,  0.0000,  0.0000)
   2 Na     7.179600    6.643809    8.942824    ( 0.0000,  0.0000,  0.0000)
   3 Na     6.187777    9.016425    4.617028    ( 0.0000,  0.0000,  0.0000)
   4 Na     8.226686    9.680592   10.363148    ( 0.0000,  0.0000,  0.0000)
   5 Na     8.131378    6.683550    5.908769    ( 0.0000,  0.0000,  0.0000)
   6 Na    10.055087    6.800760   10.554192    ( 0.0000,  0.0000,  0.0000)
   7 Na    10.230037    8.424760    7.858633    ( 0.0000,  0.0000,  0.0000)

Unit cell:
           periodic     x           y           z      points  spacing
  1. axis:    no    16.000000    0.000000    0.000000    64     0.2500
  2. axis:    no     0.000000   16.000000    0.000000    64     0.2500
  3. axis:    no     0.000000    0.000000   16.000000    64     0.2500

  Lengths:  16.000000  16.000000  16.000000
  Angles:   90.000000  90.000000  90.000000

Effective grid spacing dv^(1/3) = 0.2500

                     log10-error:    total        iterations:
           time      wfs    density  energy       fermi  poisson
iter:   1  23:22:47          +inf    -6.373179    3      1      
iter:   2  23:22:49         -1.88    -6.374075    3      1      
iter:   3  23:22:50         -2.41    -6.374461    2      1      
iter:   4  23:22:51         -2.65    -6.374581    2      1      
iter:   5  23:22:52         -2.95    -6.374537    2      1      
iter:   6  23:22:54         -3.35    -6.374534    2      1      
iter:   7  23:22:55         -3.57    -6.374528    2      1      
iter:   8  23:22:56         -3.82    -6.374525    2      1      
iter:   9  23:22:57         -4.17    -6.374525    2      1      

Converged after 9 iterations.

Dipole moment: (-0.033733, -0.060894, -0.024411) |e|*Ang

Energy contributions relative to reference atoms: (reference = -35189.668405)

Kinetic:        +33.764419
Potential:      -28.602267
External:        +0.000000
XC:             -11.559860
Entropy (-ST):   -0.042275
Local:           +0.044321
--------------------------
Free energy:     -6.395662
Extrapolated:    -6.374525

Fermi level: -2.65635

 Band  Eigenvalues  Occupancy
    0     -4.92773    2.00000
    1     -3.91061    2.00000
    2     -2.85340    1.96188
    3     -2.83072    1.94065
    4     -2.50779    0.09747
    5     -1.66814    0.00000
    6     -1.58457    0.00000
    7     -0.99489    0.00000
    8      0.98319    0.00000
    9      1.20317    0.00000

Gap: 0.323 eV
Transition (v -> c):
  (s=0, k=0, n=3, [0.00, 0.00, 0.00]) -> (s=0, k=0, n=4, [0.00, 0.00, 0.00])

Forces in eV/Ang:
  0 Na   -0.13709    0.18478    0.05838
  1 Na    0.11103    0.11100   -0.06051
  2 Na   -0.19748   -0.07219    0.03856
  3 Na   -0.10181   -0.10627    0.01187
  4 Na   -0.01638    0.14053    0.09240
  5 Na    0.10653   -0.17213   -0.06897
  6 Na    0.01010   -0.14146   -0.04648
  7 Na    0.22832    0.06011   -0.02725

System changes: positions 

Initializing position-dependent things.

Density initialized from wave functions
           .--------------------------------------.  
          /|                                      |  
         / |                                      |  
        /  |                                      |  
       /   |                                      |  
      /    |                                      |  
     /     |                                      |  
    /      |                                      |  
   /       |                                      |  
  /        |                                      |  
 *         |                                      |  
 |         |               Na                     |  
 |         |                                      |  
 |         |                  Na                  |  
 |         |            Na                        |  
 |         |          Na        Na                |  
 |         |                                      |  
 |         |                   Na                 |  
 |         |                                      |  
 |         |         Na  Na                       |  
 |         .--------------------------------------.  
 |        /                                      /   
 |       /                                      /    
 |      /                                      /     
 |     /                                      /      
 |    /                                      /       
 |   /                                      /        
 |  /                                      /         
 | /                                      /          
 |/                                      /           
 *--------------------------------------*            

Positions:
   0 Na     6.746484    9.847773    7.652103    ( 0.0000,  0.0000,  0.0000)
   1 Na     9.548113   10.010366    5.214890    ( 0.0000,  0.0000,  0.0000)
   2 Na     6.980223    6.544859    9.016619    ( 0.0000,  0.0000,  0.0000)
   3 Na     6.040916    8.976039    4.562430    ( 0.0000,  0.0000,  0.0000)
   4 Na     8.197746    9.833195   10.478853    ( 0.0000,  0.0000,  0.0000)
   5 Na     8.219846    6.490908    5.798060    ( 0.0000,  0.0000,  0.0000)
   6 Na    10.135603    6.663954   10.586395    ( 0.0000,  0.0000,  0.0000)
   7 Na    10.422078    8.454126    7.843965    ( 0.0000,  0.0000,  0.0000)

Unit cell:
           periodic     x           y           z      points  spacing
  1. axis:    no    16.000000    0.000000    0.000000    64     0.2500
  2. axis:    no     0.000000   16.000000    0.000000    64     0.2500
  3. axis:    no     0.000000    0.000000   16.000000    64     0.2500

  Lengths:  16.000000  16.000000  16.000000
  Angles:   90.000000  90.000000  90.000000

Effective grid spacing dv^(1/3) = 0.2500

                     log10-error:    total        iterations:
           time      wfs    density  energy       fermi  poisson
iter:   1  23:22:59          +inf    -6.494388    4      1      
iter:   2  23:23:00         -1.20    -6.480744    3      1      
iter:   3  23:23:02         -1.69    -6.480090    3      1      
iter:   4  23:23:03         -2.00    -6.480162    2      1      
iter:   5  23:23:04         -2.24    -6.479951    2      1      
iter:   6  23:23:05         -2.71    -6.479909    2      1      
iter:   7  23:23:07         -3.06    -6.479901    2      1      
iter:   8  23:23:08         -3.35    -6.479896    2      1      
iter:   9  23:23:09         -3.59    -6.479894    2      1      
iter:  10  23:23:10         -3.83    -6.479894    2      1      
iter:  11  23:23:11         -4.02    -6.479894    1      1      

Converged after 11 iterations.

Dipole moment: (-0.048543, -0.097335, -0.028199) |e|*Ang

Energy contributions relative to reference atoms: (reference = -35189.668405)

Kinetic:        +23.581390
Potential:      -20.778750
External:        +0.000000
XC:              -9.305687
Entropy (-ST):   -0.020586
Local:           +0.033447
--------------------------
Free energy:     -6.490187
Extrapolated:    -6.479894

Fermi level: -2.63302

 Band  Eigenvalues  Occupancy
    0     -4.67954    2.00000
    1     -3.74808    2.00000
    2     -2.89855    1.99017
    3     -2.84257    1.97019
    4     -2.43797    0.03964
    5     -1.76952    0.00000
    6     -1.63300    0.00000
    7     -1.09606    0.00000
    8      1.69557    0.00000
    9      1.75857    0.00000

Gap: 0.405 eV
Transition (v -> c):
  (s=0, k=0, n=3, [0.00, 0.00, 0.00]) -> (s=0, k=0, n=4, [0.00, 0.00, 0.00])

Forces in eV/Ang:
  0 Na    0.01415    0.05324    0.02839
  1 Na   -0.04552   -0.03367    0.05700
  2 Na    0.00901    0.08185   -0.06061
  3 Na    0.07617   -0.14462    0.13882
  4 Na    0.01828   -0.04115   -0.06582
  5 Na    0.04170    0.05371    0.07786
  6 Na   -0.13836   -0.02286   -0.16458
  7 Na    0.02644    0.05480   -0.01451

System changes: positions 

Initializing position-dependent things.

Density initialized from wave functions
           .--------------------------------------.  
          /|                                      |  
         / |                                      |  
        /  |                                      |  
       /   |                                      |  
      /    |                                      |  
     /     |                                      |  
    /      |                                      |  
   /       |                                      |  
  /        |                                      |  
 *         |                                      |  
 |         |               Na                     |  
 |         |                                      |  
 |         |                  Na                  |  
 |         |            Na                        |  
 |         |          Na        Na                |  
 |         |                                      |  
 |         |                  Na                  |  
 |         |                                      |  
 |         |          Na Na                       |  
 |         .--------------------------------------.  
 |        /                                      /   
 |       /                                      /    
 |      /                                      /     
 |     /                                      /      
 |    /                                      /       
 |   /                                      /        
 |  /                                      /         
 | /                                      /          
 |/                                      /           
 *--------------------------------------*            

Positions:
   0 Na     6.785066    9.821313    7.653267    ( 0.0000,  0.0000,  0.0000)
   1 Na     9.504662    9.968797    5.249775    ( 0.0000,  0.0000,  0.0000)
   2 Na     7.058695    6.573984    8.967598    ( 0.0000,  0.0000,  0.0000)
   3 Na     6.112103    8.974895    4.598922    ( 0.0000,  0.0000,  0.0000)
   4 Na     8.209200    9.780440   10.432181    ( 0.0000,  0.0000,  0.0000)
   5 Na     8.180185    6.560010    5.859428    ( 0.0000,  0.0000,  0.0000)
   6 Na    10.084563    6.717285   10.555051    ( 0.0000,  0.0000,  0.0000)
   7 Na    10.379505    8.455445    7.837874    ( 0.0000,  0.0000,  0.0000)

Unit cell:
           periodic     x           y           z      points  spacing
  1. axis:    no    16.000000    0.000000    0.000000    64     0.2500
  2. axis:    no     0.000000   16.000000    0.000000    64     0.2500
  3. axis:    no     0.000000    0.000000   16.000000    64     0.2500

  Lengths:  16.000000  16.000000  16.000000
  Angles:   90.000000  90.000000  90.000000

Effective grid spacing dv^(1/3) = 0.2500

                     log10-error:    total        iterations:
           time      wfs    density  energy       fermi  poisson
iter:   1  23:23:13          +inf    -6.505598    3      1      
iter:   2  23:23:15         -1.67    -6.501613    3      1      
iter:   3  23:23:16         -2.05    -6.500308    3      1      
iter:   4  23:23:17         -2.47    -6.500211    2      1      
iter:   5  23:23:18         -2.83    -6.500220    2      1      
iter:   6  23:23:20         -3.42    -6.500219    2      1      
iter:   7  23:23:21         -3.76    -6.500222    1      1      
iter:   8  23:23:22         -3.96    -6.500225    1      1      
iter:   9  23:23:23         -4.25    -6.500225    2      1      

Converged after 9 iterations.

Dipole moment: (-0.045263, -0.091717, -0.028230) |e|*Ang

Energy contributions relative to reference atoms: (reference = -35189.668405)

Kinetic:        +27.259999
Potential:      -23.648266
External:        +0.000000
XC:             -10.137252
Entropy (-ST):   -0.022062
Local:           +0.036326
--------------------------
Free energy:     -6.511255
Extrapolated:    -6.500225

Fermi level: -2.63645

 Band  Eigenvalues  Occupancy
    0     -4.76590    2.00000
    1     -3.80240    2.00000
    2     -2.88377    1.98588
    3     -2.84793    1.97130
    4     -2.44534    0.04282
    5     -1.72895    0.00000
    6     -1.60942    0.00000
    7     -1.04183    0.00000
    8      1.44574    0.00000
    9      1.49080    0.00000

Gap: 0.403 eV
Transition (v -> c):
  (s=0, k=0, n=3, [0.00, 0.00, 0.00]) -> (s=0, k=0, n=4, [0.00, 0.00, 0.00])

Forces in eV/Ang:
  0 Na   -0.02938    0.08649    0.02575
  1 Na   -0.00605    0.01485    0.01425
  2 Na   -0.07392    0.04501   -0.01611
  3 Na    0.01695   -0.12840    0.10273
  4 Na    0.01593    0.01004   -0.01020
  5 Na    0.08421   -0.01955    0.01968
  6 Na   -0.08788   -0.05945   -0.12964
  7 Na    0.08074    0.05265   -0.00781

System changes: positions 

Initializing position-dependent things.

Density initialized from wave functions
           .--------------------------------------.  
          /|                                      |  
         / |                                      |  
        /  |                                      |  
       /   |                                      |  
      /    |                                      |  
     /     |                                      |  
    /      |                                      |  
   /       |                                      |  
  /        |                                      |  
 *         |                                      |  
 |         |               Na                     |  
 |         |                                      |  
 |         |                  Na                  |  
 |         |           Na                         |  
 |         |          Na        Na                |  
 |         |                                      |  
 |         |                   Na                 |  
 |         |                                      |  
 |         |         Na  Na                       |  
 |         .--------------------------------------.  
 |        /                                      /   
 |       /                                      /    
 |      /                                      /     
 |     /                                      /      
 |    /                                      /       
 |   /                                      /        
 |  /                                      /         
 | /                                      /          
 |/                                      /           
 *--------------------------------------*            

Positions:
   0 Na     6.631829   10.061161    7.748806    ( 0.0000,  0.0000,  0.0000)
   1 Na     9.613592   10.073239    5.211157    ( 0.0000,  0.0000,  0.0000)
   2 Na     6.890167    6.494533    8.941355    ( 0.0000,  0.0000,  0.0000)
   3 Na     6.066049    8.823429    4.662220    ( 0.0000,  0.0000,  0.0000)
   4 Na     8.196179    9.916897   10.501754    ( 0.0000,  0.0000,  0.0000)
   5 Na     8.262689    6.399512    5.855589    ( 0.0000,  0.0000,  0.0000)
   6 Na    10.028991    6.590776   10.449577    ( 0.0000,  0.0000,  0.0000)
   7 Na    10.665221    8.546449    7.781386    ( 0.0000,  0.0000,  0.0000)

Unit cell:
           periodic     x           y           z      points  spacing
  1. axis:    no    16.000000    0.000000    0.000000    64     0.2500
  2. axis:    no     0.000000   16.000000    0.000000    64     0.2500
  3. axis:    no     0.000000    0.000000   16.000000    64     0.2500

  Lengths:  16.000000  16.000000  16.000000
  Angles:   90.000000  90.000000  90.000000

Effective grid spacing dv^(1/3) = 0.2500

                     log10-error:    total        iterations:
           time      wfs    density  energy       fermi  poisson
iter:   1  23:23:25          +inf    -6.576537    4      1      
iter:   2  23:23:26         -1.15    -6.554039    3      1      
iter:   3  23:23:28         -1.64    -6.552096    2      1      
iter:   4  23:23:29         -1.93    -6.551942    2      1      
iter:   5  23:23:30         -2.27    -6.551915    2      1      
iter:   6  23:23:31         -2.83    -6.551905    2      1      
iter:   7  23:23:32         -3.14    -6.551898    2      1      
iter:   8  23:23:34         -3.59    -6.551899    2      1      
iter:   9  23:23:35         -3.95    -6.551900    1      1      
iter:  10  23:23:36         -4.23    -6.551900    1      1      

Converged after 10 iterations.

Dipole moment: (-0.064244, -0.149977, -0.034610) |e|*Ang

Energy contributions relative to reference atoms: (reference = -35189.668405)

Kinetic:        +21.217459
Potential:      -19.082451
External:        +0.000000
XC:              -8.714982
Entropy (-ST):   -0.003816
Local:           +0.029983
--------------------------
Free energy:     -6.553809
Extrapolated:    -6.551900

Fermi level: -2.60547

 Band  Eigenvalues  Occupancy
    0     -4.57409    2.00000
    1     -3.64878    2.00000
    2     -2.95451    1.99814
    3     -2.92432    1.99661
    4     -2.30848    0.00525
    5     -1.82217    0.00000
    6     -1.62992    0.00000
    7     -1.13092    0.00000
    8      1.98357    0.00000
    9      2.19066    0.00000

Gap: 0.616 eV
Transition (v -> c):
  (s=0, k=0, n=3, [0.00, 0.00, 0.00]) -> (s=0, k=0, n=4, [0.00, 0.00, 0.00])

Forces in eV/Ang:
  0 Na    0.04107   -0.00699   -0.02574
  1 Na   -0.10796   -0.06316    0.06329
  2 Na    0.00614    0.14264   -0.05656
  3 Na    0.10782   -0.11311    0.18276
  4 Na    0.04729   -0.09932   -0.08316
  5 Na    0.08266    0.09129    0.08585
  6 Na   -0.14231    0.02816   -0.19190
  7 Na   -0.03468    0.01776    0.02720

System changes: positions 

Initializing position-dependent things.

Density initialized from wave functions
           .--------------------------------------.  
          /|                                      |  
         / |                                      |  
        /  |                                      |  
       /   |                                      |  
      /    |                                      |  
     /     |                                      |  
    /      |                                      |  
   /       |                                      |  
  /        |                                      |  
 *         |                                      |  
 |         |               Na                     |  
 |         |                                      |  
 |         |                 Na                   |  
 |         |           Na                         |  
 |         |          Na         Na               |  
 |         |                                      |  
 |         |                   Na                 |  
 |         |                                      |  
 |         |         Na  Na                       |  
 |         .--------------------------------------.  
 |        /                                      /   
 |       /                                      /    
 |      /                                      /     
 |     /                                      /      
 |    /                                      /       
 |   /                                      /        
 |  /                                      /         
 | /                                      /          
 |/                                      /           
 *--------------------------------------*            

Positions:
   0 Na     6.537556   10.232104    7.820758    ( 0.0000,  0.0000,  0.0000)
   1 Na     9.667134   10.128013    5.204269    ( 0.0000,  0.0000,  0.0000)
   2 Na     6.798121    6.461777    8.894651    ( 0.0000,  0.0000,  0.0000)
   3 Na     6.072935    8.693461    4.744544    ( 0.0000,  0.0000,  0.0000)
   4 Na     8.195587    9.987986   10.525034    ( 0.0000,  0.0000,  0.0000)
   5 Na     8.315879    6.318281    5.888097    ( 0.0000,  0.0000,  0.0000)
   6 Na     9.948418    6.518592   10.335554    ( 0.0000,  0.0000,  0.0000)
   7 Na    10.859851    8.619773    7.737475    ( 0.0000,  0.0000,  0.0000)

Unit cell:
           periodic     x           y           z      points  spacing
  1. axis:    no    16.000000    0.000000    0.000000    64     0.2500
  2. axis:    no     0.000000   16.000000    0.000000    64     0.2500
  3. axis:    no     0.000000    0.000000   16.000000    64     0.2500

  Lengths:  16.000000  16.000000  16.000000
  Angles:   90.000000  90.000000  90.000000

Effective grid spacing dv^(1/3) = 0.2500

                     log10-error:    total        iterations:
           time      wfs    density  energy       fermi  poisson
iter:   1  23:23:38          +inf    -6.571737    3      1      
iter:   2  23:23:39         -1.38    -6.562763    3      1      
iter:   3  23:23:41         -1.83    -6.561877    2      1      
iter:   4  23:23:42         -2.12    -6.561760    2      1      
iter:   5  23:23:43         -2.51    -6.561752    2      1      
iter:   6  23:23:44         -2.83    -6.561749    1      1      
iter:   7  23:23:45         -3.41    -6.561748    2      1      
iter:   8  23:23:47         -3.69    -6.561748    1      1      
iter:   9  23:23:48         -4.06    -6.561748    1      1      

Converged after 9 iterations.

Dipole moment: (-0.073093, -0.180672, -0.037508) |e|*Ang

Energy contributions relative to reference atoms: (reference = -35189.668405)

Kinetic:        +18.979827
Potential:      -17.397248
External:        +0.000000
XC:              -8.171320
Entropy (-ST):   -0.000972
Local:           +0.027478
--------------------------
Free energy:     -6.562234
Extrapolated:    -6.561748

Fermi level: -2.57927

 Band  Eigenvalues  Occupancy
    0     -4.48484    2.00000
    1     -3.55510    2.00000
    2     -2.99517    1.99951
    3     -2.98401    1.99939
    4     -2.20388    0.00110
    5     -1.86638    0.00000
    6     -1.62855    0.00000
    7     -1.20642    0.00000
    8      2.13316    0.00000
    9      2.29036    0.00000

Gap: 0.780 eV
Transition (v -> c):
  (s=0, k=0, n=3, [0.00, 0.00, 0.00]) -> (s=0, k=0, n=4, [0.00, 0.00, 0.00])

Forces in eV/Ang:
  0 Na    0.05306   -0.05241   -0.05941
  1 Na   -0.14286   -0.09038    0.07512
  2 Na    0.01591    0.17865   -0.06663
  3 Na    0.12928   -0.07571    0.21134
  4 Na    0.05610   -0.13960   -0.10467
  5 Na    0.09716    0.12127    0.10567
  6 Na   -0.13347    0.07444   -0.21199
  7 Na   -0.07663   -0.01406    0.05092

System changes: positions 

Initializing position-dependent things.

Density initialized from wave functions
           .--------------------------------------.  
          /|                                      |  
         / |                                      |  
        /  |                                      |  
       /   |                                      |  
      /    |                                      |  
     /     |                                      |  
    /      |                                      |  
   /       |                                      |  
  /        |                                      |  
 *         |                                      |  
 |         |               Na                     |  
 |         |                                      |  
 |         |                 Na                   |  
 |         |           Na                         |  
 |         |         Na          Na               |  
 |         |                                      |  
 |         |                   Na                 |  
 |         |                                      |  
 |         |         Na  Na                       |  
 |         .--------------------------------------.  
 |        /                                      /   
 |       /                                      /    
 |      /                                      /     
 |     /                                      /      
 |    /                                      /       
 |   /                                      /        
 |  /                                      /         
 | /                                      /          
 |/                                      /           
 *--------------------------------------*            

Positions:
   0 Na     6.476453   10.350065    7.867784    ( 0.0000,  0.0000,  0.0000)
   1 Na     9.690671   10.157385    5.208054    ( 0.0000,  0.0000,  0.0000)
   2 Na     6.736780    6.456198    8.852617    ( 0.0000,  0.0000,  0.0000)
   3 Na     6.093169    8.591121    4.825444    ( 0.0000,  0.0000,  0.0000)
   4 Na     8.200884   10.024170   10.529869    ( 0.0000,  0.0000,  0.0000)
   5 Na     8.361529    6.274174    5.924085    ( 0.0000,  0.0000,  0.0000)
   6 Na     9.874641    6.474868   10.231665    ( 0.0000,  0.0000,  0.0000)
   7 Na    10.991519    8.672241    7.709879    ( 0.0000,  0.0000,  0.0000)

Unit cell:
           periodic     x           y           z      points  spacing
  1. axis:    no    16.000000    0.000000    0.000000    64     0.2500
  2. axis:    no     0.000000   16.000000    0.000000    64     0.2500
  3. axis:    no     0.000000    0.000000   16.000000    64     0.2500

  Lengths:  16.000000  16.000000  16.000000
  Angles:   90.000000  90.000000  90.000000

Effective grid spacing dv^(1/3) = 0.2500

                     log10-error:    total        iterations:
           time      wfs    density  energy       fermi  poisson
iter:   1  23:23:50          +inf    -6.583805    3      1      
iter:   2  23:23:51         -1.58    -6.579930    2      1      
iter:   3  23:23:52         -2.02    -6.579534    2      1      
iter:   4  23:23:54         -2.30    -6.579464    2      1      
iter:   5  23:23:55         -2.73    -6.579461    1      1      
iter:   6  23:23:56         -2.99    -6.579459    1      1      
iter:   7  23:23:57         -3.62    -6.579459    1      1      
iter:   8  23:23:59         -3.87    -6.579459    1      1      
iter:   9  23:24:00         -4.24    -6.579459    1      1      

Converged after 9 iterations.

Dipole moment: (-0.075758, -0.193999, -0.038156) |e|*Ang

Energy contributions relative to reference atoms: (reference = -35189.668405)

Kinetic:        +18.110800
Potential:      -16.753520
External:        +0.000000
XC:              -7.963477
Entropy (-ST):   -0.000343
Local:           +0.026909
--------------------------
Free energy:     -6.579631
Extrapolated:    -6.579459

Fermi level: -2.55417

 Band  Eigenvalues  Occupancy
    0     -4.44363    2.00000
    1     -3.49399    2.00000
    2     -3.02748    1.99985
    3     -3.01820    1.99981
    4     -2.11993    0.00034
    5     -1.88590    0.00000
    6     -1.62373    0.00000
    7     -1.26789    0.00000
    8      2.15267    0.00000
    9      2.21514    0.00000

Gap: 0.898 eV
Transition (v -> c):
  (s=0, k=0, n=3, [0.00, 0.00, 0.00]) -> (s=0, k=0, n=4, [0.00, 0.00, 0.00])

Forces in eV/Ang:
  0 Na    0.06059   -0.08072   -0.07469
  1 Na   -0.15911   -0.10578    0.08236
  2 Na    0.01046    0.19641   -0.07229
  3 Na    0.12889   -0.04605    0.21905
  4 Na    0.05832   -0.15992   -0.11746
  5 Na    0.11541    0.12961    0.11537
  6 Na   -0.11323    0.10034   -0.21238
  7 Na   -0.09959   -0.03375    0.06131

System changes: positions 

Initializing position-dependent things.

Density initialized from wave functions
           .--------------------------------------.  
          /|                                      |  
         / |                                      |  
        /  |                                      |  
       /   |                                      |  
      /    |                                      |  
     /     |                                      |  
    /      |                                      |  
   /       |                                      |  
  /        |                                      |  
 *         |                                      |  
 |         |               Na                     |  
 |         |                                      |  
 |         |                 Na                   |  
 |         |           Na                         |  
 |         |         Na          Na               |  
 |         |                                      |  
 |         |                   Na                 |  
 |         |                                      |  
 |         |         Na  Na                       |  
 |         .--------------------------------------.  
 |        /                                      /   
 |       /                                      /    
 |      /                                      /     
 |     /                                      /      
 |    /                                      /       
 |   /                                      /        
 |  /                                      /         
 | /                                      /          
 |/                                      /           
 *--------------------------------------*            

Positions:
   0 Na     6.446119   10.414244    7.887770    ( 0.0000,  0.0000,  0.0000)
   1 Na     9.684494   10.162092    5.221322    ( 0.0000,  0.0000,  0.0000)
   2 Na     6.699794    6.478750    8.816809    ( 0.0000,  0.0000,  0.0000)
   3 Na     6.123233    8.519282    4.905612    ( 0.0000,  0.0000,  0.0000)
   4 Na     8.212036   10.026010   10.517477    ( 0.0000,  0.0000,  0.0000)
   5 Na     8.405271    6.263733    5.961792    ( 0.0000,  0.0000,  0.0000)
   6 Na     9.812158    6.459801   10.137654    ( 0.0000,  0.0000,  0.0000)
   7 Na    11.061457    8.701437    7.700487    ( 0.0000,  0.0000,  0.0000)

Unit cell:
           periodic     x           y           z      points  spacing
  1. axis:    no    16.000000    0.000000    0.000000    64     0.2500
  2. axis:    no     0.000000   16.000000    0.000000    64     0.2500
  3. axis:    no     0.000000    0.000000   16.000000    64     0.2500

  Lengths:  16.000000  16.000000  16.000000
  Angles:   90.000000  90.000000  90.000000

Effective grid spacing dv^(1/3) = 0.2500

                     log10-error:    total        iterations:
           time      wfs    density  energy       fermi  poisson
iter:   1  23:24:02          +inf    -6.630427    3      1      
iter:   2  23:24:03         -1.82    -6.629021    2      1      
iter:   3  23:24:04         -2.26    -6.628884    2      1      
iter:   4  23:24:05         -2.48    -6.628843    2      1      
iter:   5  23:24:07         -3.04    -6.628841    1      1      
iter:   6  23:24:08         -3.28    -6.628840    1      1      
iter:   7  23:24:09         -3.87    -6.628840    1      1      
iter:   8  23:24:10         -4.12    -6.628840    1      1      

Converged after 8 iterations.

Dipole moment: (-0.073462, -0.192420, -0.037173) |e|*Ang

Energy contributions relative to reference atoms: (reference = -35189.668405)

Kinetic:        +18.401315
Potential:      -17.016143
External:        +0.000000
XC:              -8.041038
Entropy (-ST):   -0.000154
Local:           +0.027102
--------------------------
Free energy:     -6.628917
Extrapolated:    -6.628840

Fermi level: -2.53202

 Band  Eigenvalues  Occupancy
    0     -4.44574    2.00000
    1     -3.46578    2.00000
    2     -3.05185    1.99994
    3     -3.03921    1.99992
    4     -2.05182    0.00013
    5     -1.88503    0.00000
    6     -1.61922    0.00000
    7     -1.30645    0.00000
    8      2.13198    0.00000
    9      2.14625    0.00000

Gap: 0.987 eV
Transition (v -> c):
  (s=0, k=0, n=3, [0.00, 0.00, 0.00]) -> (s=0, k=0, n=4, [0.00, 0.00, 0.00])

Forces in eV/Ang:
  0 Na    0.06328   -0.08933   -0.07739
  1 Na   -0.16630   -0.11150    0.08601
  2 Na   -0.00963    0.20482   -0.07586
  3 Na    0.11508   -0.02355    0.21287
  4 Na    0.05998   -0.16693   -0.12273
  5 Na    0.13750    0.12213    0.11763
  6 Na   -0.08967    0.10637   -0.20174
  7 Na   -0.10875   -0.03981    0.06247

System changes: positions 

Initializing position-dependent things.

Density initialized from wave functions
           .--------------------------------------.  
          /|                                      |  
         / |                                      |  
        /  |                                      |  
       /   |                                      |  
      /    |                                      |  
     /     |                                      |  
    /      |                                      |  
   /       |                                      |  
  /        |                                      |  
 *         |                                      |  
 |         |               Na                     |  
 |         |                                      |  
 |         |                 Na                   |  
 |         |           Na                         |  
 |         |         Na          Na               |  
 |         |                                      |  
 |         |                   Na                 |  
 |         |         Na                           |  
 |         |              Na                      |  
 |         .--------------------------------------.  
 |        /                                      /   
 |       /                                      /    
 |      /                                      /     
 |     /                                      /      
 |    /                                      /       
 |   /                                      /        
 |  /                                      /         
 | /                                      /          
 |/                                      /           
 *--------------------------------------*            

Positions:
   0 Na     6.435879   10.444689    7.887344    ( 0.0000,  0.0000,  0.0000)
   1 Na     9.647968   10.144366    5.247466    ( 0.0000,  0.0000,  0.0000)
   2 Na     6.671330    6.535058    8.776407    ( 0.0000,  0.0000,  0.0000)
   3 Na     6.168323    8.459910    5.006695    ( 0.0000,  0.0000,  0.0000)
   4 Na     8.231912    9.995400   10.484972    ( 0.0000,  0.0000,  0.0000)
   5 Na     8.463473    6.280106    6.011820    ( 0.0000,  0.0000,  0.0000)
   6 Na     9.747134    6.468496   10.028165    ( 0.0000,  0.0000,  0.0000)
   7 Na    11.092318    8.715601    7.705931    ( 0.0000,  0.0000,  0.0000)

Unit cell:
           periodic     x           y           z      points  spacing
  1. axis:    no    16.000000    0.000000    0.000000    64     0.2500
  2. axis:    no     0.000000   16.000000    0.000000    64     0.2500
  3. axis:    no     0.000000    0.000000   16.000000    64     0.2500

  Lengths:  16.000000  16.000000  16.000000
  Angles:   90.000000  90.000000  90.000000

Effective grid spacing dv^(1/3) = 0.2500

                     log10-error:    total        iterations:
           time      wfs    density  energy       fermi  poisson
iter:   1  23:24:12          +inf    -6.728194    2      1      
iter:   2  23:24:13         -1.91    -6.727362    2      1      
iter:   3  23:24:15         -2.24    -6.727218    2      1      
iter:   4  23:24:16         -2.46    -6.727159    2      1      
iter:   5  23:24:17         -3.14    -6.727157    1      1      
iter:   6  23:24:18         -3.32    -6.727156    1      1      
iter:   7  23:24:19         -4.20    -6.727156    1      1      

Converged after 7 iterations.

Dipole moment: (-0.066302, -0.177540, -0.034705) |e|*Ang

Energy contributions relative to reference atoms: (reference = -35189.668405)

Kinetic:        +19.847818
Potential:      -18.200758
External:        +0.000000
XC:              -8.402841
Entropy (-ST):   -0.000067
Local:           +0.028658
--------------------------
Free energy:     -6.727189
Extrapolated:    -6.727156

Fermi level: -2.50770

 Band  Eigenvalues  Occupancy
    0     -4.48659    2.00000
    1     -3.45952    2.00000
    2     -3.07165    1.99997
    3     -3.06254    1.99997
    4     -1.97838    0.00005
    5     -1.86337    0.00001
    6     -1.61329    0.00000
    7     -1.33308    0.00000
    8      2.02604    0.00000
    9      2.09893    0.00000

Gap: 1.084 eV
Transition (v -> c):
  (s=0, k=0, n=3, [0.00, 0.00, 0.00]) -> (s=0, k=0, n=4, [0.00, 0.00, 0.00])

Forces in eV/Ang:
  0 Na    0.06361   -0.08348   -0.07106
  1 Na   -0.16998   -0.10844    0.08617
  2 Na   -0.04779    0.20761   -0.07846
  3 Na    0.08768   -0.00722    0.18812
  4 Na    0.06478   -0.16493   -0.12085
  5 Na    0.16698    0.09974    0.11486
  6 Na   -0.05786    0.09309   -0.17633
  7 Na   -0.10475   -0.03389    0.05751

System changes: positions 

Initializing position-dependent things.

Density initialized from wave functions
           .--------------------------------------.  
          /|                                      |  
         / |                                      |  
        /  |                                      |  
       /   |                                      |  
      /    |                                      |  
     /     |                                      |  
    /      |                                      |  
   /       |                                      |  
  /        |                                      |  
 *         |                                      |  
 |         |               Na                     |  
 |         |                                      |  
 |         |                                      |  
 |         |           Na    Na                   |  
 |         |         Na          Na               |  
 |         |                                      |  
 |         |                   Na                 |  
 |         |         Na   Na                      |  
 |         |                                      |  
 |         .--------------------------------------.  
 |        /                                      /   
 |       /                                      /    
 |      /                                      /     
 |     /                                      /      
 |    /                                      /       
 |   /                                      /        
 |  /                                      /         
 | /                                      /          
 |/                                      /           
 *--------------------------------------*            

Positions:
   0 Na     6.443983   10.442277    7.871468    ( 0.0000,  0.0000,  0.0000)
   1 Na     9.593731   10.112302    5.278899    ( 0.0000,  0.0000,  0.0000)
   2 Na     6.649880    6.607566    8.739690    ( 0.0000,  0.0000,  0.0000)
   3 Na     6.212310    8.425998    5.100455    ( 0.0000,  0.0000,  0.0000)
   4 Na     8.255415    9.944861   10.442834    ( 0.0000,  0.0000,  0.0000)
   5 Na     8.526015    6.311480    6.061646    ( 0.0000,  0.0000,  0.0000)
   6 Na     9.698536    6.493357    9.932405    ( 0.0000,  0.0000,  0.0000)
   7 Na    11.085786    8.715298    7.721432    ( 0.0000,  0.0000,  0.0000)

Unit cell:
           periodic     x           y           z      points  spacing
  1. axis:    no    16.000000    0.000000    0.000000    64     0.2500
  2. axis:    no     0.000000   16.000000    0.000000    64     0.2500
  3. axis:    no     0.000000    0.000000   16.000000    64     0.2500

  Lengths:  16.000000  16.000000  16.000000
  Angles:   90.000000  90.000000  90.000000

Effective grid spacing dv^(1/3) = 0.2500

                     log10-error:    total        iterations:
           time      wfs    density  energy       fermi  poisson
iter:   1  23:24:21          +inf    -6.838217    1      1      
iter:   2  23:24:23         -1.96    -6.837741    2      1      
iter:   3  23:24:24         -2.17    -6.837506    2      1      
iter:   4  23:24:25         -2.63    -6.837484    2      1      
iter:   5  23:24:26         -3.05    -6.837480    1      1      
iter:   6  23:24:27         -3.47    -6.837479    1      1      
iter:   7  23:24:29         -3.99    -6.837479    1      1      
iter:   8  23:24:30         -4.26    -6.837479    1      1      

Converged after 8 iterations.

Dipole moment: (-0.057467, -0.156862, -0.031732) |e|*Ang

Energy contributions relative to reference atoms: (reference = -35189.668405)

Kinetic:        +21.944147
Potential:      -19.892842
External:        +0.000000
XC:              -8.919020
Entropy (-ST):   -0.000034
Local:           +0.030252
--------------------------
Free energy:     -6.837496
Extrapolated:    -6.837479

Fermi level: -2.48582

 Band  Eigenvalues  Occupancy
    0     -4.54676    2.00000
    1     -3.47036    2.00000
    2     -3.09671    1.99999
    3     -3.06925    1.99998
    4     -1.91773    0.00002
    5     -1.82570    0.00000
    6     -1.60606    0.00000
    7     -1.34610    0.00000
    8      1.92034    0.00000
    9      2.01939    0.00000

Gap: 1.152 eV
Transition (v -> c):
  (s=0, k=0, n=3, [0.00, 0.00, 0.00]) -> (s=0, k=0, n=4, [0.00, 0.00, 0.00])

Forces in eV/Ang:
  0 Na    0.06230   -0.06261   -0.05659
  1 Na   -0.16611   -0.09510    0.08076
  2 Na   -0.08452    0.20246   -0.07703
  3 Na    0.05593   -0.00878    0.15201
  4 Na    0.06920   -0.15364   -0.11308
  5 Na    0.18784    0.07251    0.10821
  6 Na   -0.03468    0.06291   -0.14186
  7 Na   -0.08849   -0.01523    0.04773

System changes: positions 

Initializing position-dependent things.

Density initialized from wave functions
           .--------------------------------------.  
          /|                                      |  
         / |                                      |  
        /  |                                      |  
       /   |                                      |  
      /    |                                      |  
     /     |                                      |  
    /      |                                      |  
   /       |                                      |  
  /        |                                      |  
 *         |                                      |  
 |         |               Na                     |  
 |         |                                      |  
 |         |                                      |  
 |         |           Na    Na                   |  
 |         |         Na          Na               |  
 |         |                                      |  
 |         |                   Na                 |  
 |         |         Na   Na                      |  
 |         |                                      |  
 |         .--------------------------------------.  
 |        /                                      /   
 |       /                                      /    
 |      /                                      /     
 |     /                                      /      
 |    /                                      /       
 |   /                                      /        
 |  /                                      /         
 | /                                      /          
 |/                                      /           
 *--------------------------------------*            

Positions:
   0 Na     6.462007   10.424788    7.849327    ( 0.0000,  0.0000,  0.0000)
   1 Na     9.529962   10.074087    5.312686    ( 0.0000,  0.0000,  0.0000)
   2 Na     6.625513    6.688604    8.704783    ( 0.0000,  0.0000,  0.0000)
   3 Na     6.250231    8.406929    5.184493    ( 0.0000,  0.0000,  0.0000)
   4 Na     8.281712    9.884749   10.396270    ( 0.0000,  0.0000,  0.0000)
   5 Na     8.595364    6.346468    6.110666    ( 0.0000,  0.0000,  0.0000)
   6 Na     9.663644    6.522814    9.849813    ( 0.0000,  0.0000,  0.0000)
   7 Na    11.060987    8.709695    7.740904    ( 0.0000,  0.0000,  0.0000)

Unit cell:
           periodic     x           y           z      points  spacing
  1. axis:    no    16.000000    0.000000    0.000000    64     0.2500
  2. axis:    no     0.000000   16.000000    0.000000    64     0.2500
  3. axis:    no     0.000000    0.000000   16.000000    64     0.2500

  Lengths:  16.000000  16.000000  16.000000
  Angles:   90.000000  90.000000  90.000000

Effective grid spacing dv^(1/3) = 0.2500

                     log10-error:    total        iterations:
           time      wfs    density  energy       fermi  poisson
iter:   1  23:24:32          +inf    -6.942287    2      1      
iter:   2  23:24:33         -1.90    -6.941685    2      1      
iter:   3  23:24:34         -2.12    -6.941373    2      1      
iter:   4  23:24:36         -2.71    -6.941354    2      1      
iter:   5  23:24:37         -3.20    -6.941352    1      1      
iter:   6  23:24:38         -3.73    -6.941352    1      1      
iter:   7  23:24:39         -4.08    -6.941352    1      1      

Converged after 7 iterations.

Dipole moment: (-0.048855, -0.135107, -0.028634) |e|*Ang

Energy contributions relative to reference atoms: (reference = -35189.668405)

Kinetic:        +24.334792
Potential:      -21.807691
External:        +0.000000
XC:              -9.500650
Entropy (-ST):   -0.000021
Local:           +0.032208
--------------------------
Free energy:     -6.941362
Extrapolated:    -6.941352

Fermi level: -2.46359

 Band  Eigenvalues  Occupancy
    0     -4.61234    2.00000
    1     -3.48828    2.00000
    2     -3.12439    2.00000
    3     -3.06483    1.99999
    4     -1.86791    0.00001
    5     -1.77694    0.00000
    6     -1.59718    0.00000
    7     -1.35508    0.00000
    8      1.78614    0.00000
    9      1.82807    0.00000

Gap: 1.197 eV
Transition (v -> c):
  (s=0, k=0, n=3, [0.00, 0.00, 0.00]) -> (s=0, k=0, n=4, [0.00, 0.00, 0.00])

Forces in eV/Ang:
  0 Na    0.05930   -0.02848   -0.03517
  1 Na   -0.15372   -0.07355    0.07250
  2 Na   -0.10733    0.18666   -0.07193
  3 Na    0.02510   -0.02923    0.10964
  4 Na    0.07246   -0.13335   -0.09913
  5 Na    0.19054    0.04519    0.09613
  6 Na   -0.02662    0.01934   -0.10559
  7 Na   -0.06173    0.01443    0.03438

System changes: positions 

Initializing position-dependent things.

Density initialized from wave functions
           .--------------------------------------.  
          /|                                      |  
         / |                                      |  
        /  |                                      |  
       /   |                                      |  
      /    |                                      |  
     /     |                                      |  
    /      |                                      |  
   /       |                                      |  
  /        |                                      |  
 *         |                                      |  
 |         |               Na                     |  
 |         |                                      |  
 |         |                                      |  
 |         |           Na    Na                   |  
 |         |         Na          Na               |  
 |         |                                      |  
 |         |                  Na                  |  
 |         |          Na  Na                      |  
 |         |                                      |  
 |         .--------------------------------------.  
 |        /                                      /   
 |       /                                      /    
 |      /                                      /     
 |     /                                      /      
 |    /                                      /       
 |   /                                      /        
 |  /                                      /         
 | /                                      /          
 |/                                      /           
 *--------------------------------------*            

Positions:
   0 Na     6.485366   10.404372    7.827098    ( 0.0000,  0.0000,  0.0000)
   1 Na     9.461425   10.035238    5.347191    ( 0.0000,  0.0000,  0.0000)
   2 Na     6.593389    6.773548    8.670662    ( 0.0000,  0.0000,  0.0000)
   3 Na     6.279327    8.393455    5.256837    ( 0.0000,  0.0000,  0.0000)
   4 Na     8.310842    9.821466   10.348599    ( 0.0000,  0.0000,  0.0000)
   5 Na     8.671842    6.378612    6.158326    ( 0.0000,  0.0000,  0.0000)
   6 Na     9.638660    6.547944    9.779924    ( 0.0000,  0.0000,  0.0000)
   7 Na    11.030150    8.706046    7.760480    ( 0.0000,  0.0000,  0.0000)

Unit cell:
           periodic     x           y           z      points  spacing
  1. axis:    no    16.000000    0.000000    0.000000    64     0.2500
  2. axis:    no     0.000000   16.000000    0.000000    64     0.2500
  3. axis:    no     0.000000    0.000000   16.000000    64     0.2500

  Lengths:  16.000000  16.000000  16.000000
  Angles:   90.000000  90.000000  90.000000

Effective grid spacing dv^(1/3) = 0.2500

                     log10-error:    total        iterations:
           time      wfs    density  energy       fermi  poisson
iter:   1  23:24:41          +inf    -7.028376    2      1      
iter:   2  23:24:42         -1.87    -7.027591    2      1      
iter:   3  23:24:44         -2.12    -7.027265    2      1      
iter:   4  23:24:45         -2.65    -7.027240    2      1      
iter:   5  23:24:46         -2.96    -7.027235    1      1      
iter:   6  23:24:47         -3.37    -7.027234    1      1      
iter:   7  23:24:48         -4.05    -7.027234    1      1      

Converged after 7 iterations.

Dipole moment: (-0.041380, -0.115997, -0.025538) |e|*Ang

Energy contributions relative to reference atoms: (reference = -35189.668405)

Kinetic:        +26.751499
Potential:      -23.732366
External:        +0.000000
XC:             -10.080954
Entropy (-ST):   -0.000014
Local:           +0.034595
--------------------------
Free energy:     -7.027241
Extrapolated:    -7.027234

Fermi level: -2.44111

 Band  Eigenvalues  Occupancy
    0     -4.67519    2.00000
    1     -3.50792    2.00000
    2     -3.15083    2.00000
    3     -3.05538    1.99999
    4     -1.82763    0.00001
    5     -1.72255    0.00000
    6     -1.58679    0.00000
    7     -1.36716    0.00000
    8      1.58258    0.00000
    9      1.74269    0.00000

Gap: 1.228 eV
Transition (v -> c):
  (s=0, k=0, n=3, [0.00, 0.00, 0.00]) -> (s=0, k=0, n=4, [0.00, 0.00, 0.00])

Forces in eV/Ang:
  0 Na    0.05479    0.01497   -0.01066
  1 Na   -0.13033   -0.04430    0.05998
  2 Na   -0.10967    0.15615   -0.06426
  3 Na   -0.00141   -0.06295    0.05965
  4 Na    0.07368   -0.10411   -0.08005
  5 Na    0.17371    0.02127    0.07908
  6 Na   -0.03245   -0.03265   -0.06618
  7 Na   -0.02770    0.05007    0.02052

System changes: positions 

Initializing position-dependent things.

Density initialized from wave functions
           .--------------------------------------.  
          /|                                      |  
         / |                                      |  
        /  |                                      |  
       /   |                                      |  
      /    |                                      |  
     /     |                                      |  
    /      |                                      |  
   /       |                                      |  
  /        |                                      |  
 *         |                                      |  
 |         |               Na                     |  
 |         |                                      |  
 |         |                                      |  
 |         |           Na    Na                   |  
 |         |         Na          Na               |  
 |         |                                      |  
 |         |                  Na                  |  
 |         |          Na  Na                      |  
 |         |                                      |  
 |         .--------------------------------------.  
 |        /                                      /   
 |       /                                      /    
 |      /                                      /     
 |     /                                      /      
 |    /                                      /       
 |   /                                      /        
 |  /                                      /         
 | /                                      /          
 |/                                      /           
 *--------------------------------------*            

Positions:
   0 Na     6.510461   10.390767    7.809834    ( 0.0000,  0.0000,  0.0000)
   1 Na     9.394940   10.001825    5.379467    ( 0.0000,  0.0000,  0.0000)
   2 Na     6.554675    6.854651    8.638517    ( 0.0000,  0.0000,  0.0000)
   3 Na     6.297336    8.377736    5.312318    ( 0.0000,  0.0000,  0.0000)
   4 Na     8.341634    9.762418   10.304268    ( 0.0000,  0.0000,  0.0000)
   5 Na     8.750100    6.403417    6.201781    ( 0.0000,  0.0000,  0.0000)
   6 Na     9.619738    6.560568    9.725668    ( 0.0000,  0.0000,  0.0000)
   7 Na    11.002858    8.710206    7.777084    ( 0.0000,  0.0000,  0.0000)

Unit cell:
           periodic     x           y           z      points  spacing
  1. axis:    no    16.000000    0.000000    0.000000    64     0.2500
  2. axis:    no     0.000000   16.000000    0.000000    64     0.2500
  3. axis:    no     0.000000    0.000000   16.000000    64     0.2500

  Lengths:  16.000000  16.000000  16.000000
  Angles:   90.000000  90.000000  90.000000

Effective grid spacing dv^(1/3) = 0.2500

                     log10-error:    total        iterations:
           time      wfs    density  energy       fermi  poisson
iter:   1  23:24:50          +inf    -7.089410    2      1      
iter:   2  23:24:52         -1.92    -7.088693    2      1      
iter:   3  23:24:53         -2.19    -7.088446    2      1      
iter:   4  23:24:54         -2.67    -7.088419    2      1      
iter:   5  23:24:55         -3.01    -7.088415    1      1      
iter:   6  23:24:56         -3.31    -7.088414    1      1      
iter:   7  23:24:58         -4.09    -7.088414    1      1      

Converged after 7 iterations.

Dipole moment: (-0.035978, -0.102009, -0.022852) |e|*Ang

Energy contributions relative to reference atoms: (reference = -35189.668405)

Kinetic:        +28.834803
Potential:      -25.384932
External:        +0.000000
XC:             -10.575103
Entropy (-ST):   -0.000011
Local:           +0.036824
--------------------------
Free energy:     -7.088420
Extrapolated:    -7.088414

Fermi level: -2.42171

 Band  Eigenvalues  Occupancy
    0     -4.72710    2.00000
    1     -3.52500    2.00000
    2     -3.17232    2.00000
    3     -3.04620    1.99999
    4     -1.79660    0.00001
    5     -1.67133    0.00000
    6     -1.57522    0.00000
    7     -1.38658    0.00000
    8      1.43535    0.00000
    9      1.67223    0.00000

Gap: 1.250 eV
Transition (v -> c):
  (s=0, k=0, n=3, [0.00, 0.00, 0.00]) -> (s=0, k=0, n=4, [0.00, 0.00, 0.00])

Forces in eV/Ang:
  0 Na    0.04821    0.05821    0.00938
  1 Na   -0.10385   -0.01477    0.04621
  2 Na   -0.09499    0.11713   -0.05116
  3 Na   -0.02082   -0.09834    0.01564
[...]
Extrapolated:    -7.236248

Fermi level: -2.40400

 Band  Eigenvalues  Occupancy
    0     -4.76954    2.00000
    1     -3.50389    2.00000
    2     -3.14973    2.00000
    3     -3.09883    2.00000
    4     -1.70878    0.00000
    5     -1.65410    0.00000
    6     -1.53404    0.00000
    7     -1.45930    0.00000
    8      1.35560    0.00000
    9      1.64820    0.00000

Gap: 1.390 eV
Transition (v -> c):
  (s=0, k=0, n=3, [0.00, 0.00, 0.00]) -> (s=0, k=0, n=4, [0.00, 0.00, 0.00])

Forces in eV/Ang:
  0 Na   -0.02765   -0.00159    0.01156
  1 Na    0.02356   -0.01548   -0.00024
  2 Na   -0.00373    0.00681   -0.02171
  3 Na    0.02353    0.00623   -0.00228
  4 Na   -0.02445    0.01162   -0.00792
  5 Na    0.01360    0.01948    0.00764
  6 Na    0.01022   -0.02349   -0.00453
  7 Na   -0.01198   -0.00325    0.01867

System changes: positions 

Initializing position-dependent things.

Density initialized from wave functions
           .--------------------------------------.  
          /|                                      |  
         / |                                      |  
        /  |                                      |  
       /   |                                      |  
      /    |                                      |  
     /     |                                      |  
    /      |                                      |  
   /       |                                      |  
  /        |                                      |  
 *         |                                      |  
 |         |                  Na                  |  
 |         |          Na                          |  
 |         |            Na                        |  
 |         |                Na                    |  
 |         |                   Na                 |  
 |         |        Na                            |  
 |         |                                      |  
 |         |          Na   Na                     |  
 |         |                                      |  
 |         .--------------------------------------.  
 |        /                                      /   
 |       /                                      /    
 |      /                                      /     
 |     /                                      /      
 |    /                                      /       
 |   /                                      /        
 |  /                                      /         
 | /                                      /          
 |/                                      /           
 *--------------------------------------*            

Positions:
   0 Na     9.367645    6.880154    9.394702    ( 0.0000,  0.0000,  0.0000)
   1 Na     6.692321   10.812100    8.045827    ( 0.0000,  0.0000,  0.0000)
   2 Na     9.422558   10.109781   10.124410    ( 0.0000,  0.0000,  0.0000)
   3 Na     6.166236    6.247138    8.084317    ( 0.0000,  0.0000,  0.0000)
   4 Na     9.712488    9.479440    6.866586    ( 0.0000,  0.0000,  0.0000)
   5 Na     6.537721    8.616545    5.669018    ( 0.0000,  0.0000,  0.0000)
   6 Na     6.419043    8.438278   10.454692    ( 0.0000,  0.0000,  0.0000)
   7 Na     9.068016    6.309003    6.116719    ( 0.0000,  0.0000,  0.0000)

Unit cell:
           periodic     x           y           z      points  spacing
  1. axis:    no    16.000000    0.000000    0.000000    64     0.2500
  2. axis:    no     0.000000   16.000000    0.000000    64     0.2500
  3. axis:    no     0.000000    0.000000   16.000000    64     0.2500

  Lengths:  16.000000  16.000000  16.000000
  Angles:   90.000000  90.000000  90.000000

Effective grid spacing dv^(1/3) = 0.2500

                     log10-error:    total        iterations:
           time      wfs    density  energy       fermi  poisson
iter:   1  00:56:54          +inf    -7.238407    2      1      
iter:   2  00:56:55         -2.43    -7.238344    2      1      
iter:   3  00:56:56         -2.66    -7.238314    2      1      
iter:   4  00:56:57         -3.07    -7.238310    1      1      
iter:   5  00:56:59         -3.40    -7.238310    1      1      
iter:   6  00:57:00         -3.96    -7.238310    1      1      
iter:   7  00:57:01         -4.23    -7.238310    1      1      

Converged after 7 iterations.

Dipole moment: (0.079337, -0.008541, 0.001413) |e|*Ang

Energy contributions relative to reference atoms: (reference = -35189.668405)

Kinetic:        +30.296660
Potential:      -26.567059
External:        +0.000000
XC:             -11.006564
Entropy (-ST):   -0.000004
Local:           +0.038654
--------------------------
Free energy:     -7.238312
Extrapolated:    -7.238310

Fermi level: -2.40055

 Band  Eigenvalues  Occupancy
    0     -4.78345    2.00000
    1     -3.50737    2.00000
    2     -3.16294    2.00000
    3     -3.09060    2.00000
    4     -1.70784    0.00000
    5     -1.64253    0.00000
    6     -1.52223    0.00000
    7     -1.46534    0.00000
    8      1.33047    0.00000
    9      1.62547    0.00000

Gap: 1.383 eV
Transition (v -> c):
  (s=0, k=0, n=3, [0.00, 0.00, 0.00]) -> (s=0, k=0, n=4, [0.00, 0.00, 0.00])

Forces in eV/Ang:
  0 Na   -0.00687   -0.02371   -0.00685
  1 Na    0.00901   -0.00534   -0.00580
  2 Na    0.00060    0.01951   -0.01359
  3 Na    0.01545    0.00655    0.00232
  4 Na    0.00016    0.01734   -0.00071
  5 Na   -0.00209    0.01837    0.00077
  6 Na   -0.00677   -0.01859    0.00502
  7 Na   -0.00685   -0.01461    0.02018

System changes: positions 

Initializing position-dependent things.

Density initialized from wave functions
           .--------------------------------------.  
          /|                                      |  
         / |                                      |  
        /  |                                      |  
       /   |                                      |  
      /    |                                      |  
     /     |                                      |  
    /      |                                      |  
   /       |                                      |  
  /        |                                      |  
 *         |                                      |  
 |         |                  Na                  |  
 |         |          Na                          |  
 |         |            Na                        |  
 |         |                Na                    |  
 |         |                   Na                 |  
 |         |        Na                            |  
 |         |                                      |  
 |         |          Na   Na                     |  
 |         |                                      |  
 |         .--------------------------------------.  
 |        /                                      /   
 |       /                                      /    
 |      /                                      /     
 |     /                                      /      
 |    /                                      /       
 |   /                                      /        
 |  /                                      /         
 | /                                      /          
 |/                                      /           
 *--------------------------------------*            

Positions:
   0 Na     9.362932    6.879427    9.396806    ( 0.0000,  0.0000,  0.0000)
   1 Na     6.698017   10.809038    8.045631    ( 0.0000,  0.0000,  0.0000)
   2 Na     9.420664   10.112171   10.119561    ( 0.0000,  0.0000,  0.0000)
   3 Na     6.172161    6.248447    8.083978    ( 0.0000,  0.0000,  0.0000)
   4 Na     9.708371    9.481599    6.864978    ( 0.0000,  0.0000,  0.0000)
   5 Na     6.539999    8.621542    5.670093    ( 0.0000,  0.0000,  0.0000)
   6 Na     6.420232    8.432552   10.454579    ( 0.0000,  0.0000,  0.0000)
   7 Na     9.064311    6.307689    6.120994    ( 0.0000,  0.0000,  0.0000)

Unit cell:
           periodic     x           y           z      points  spacing
  1. axis:    no    16.000000    0.000000    0.000000    64     0.2500
  2. axis:    no     0.000000   16.000000    0.000000    64     0.2500
  3. axis:    no     0.000000    0.000000   16.000000    64     0.2500

  Lengths:  16.000000  16.000000  16.000000
  Angles:   90.000000  90.000000  90.000000

Effective grid spacing dv^(1/3) = 0.2500

                     log10-error:    total        iterations:
           time      wfs    density  energy       fermi  poisson
iter:   1  00:57:03          +inf    -7.238864    1      1      
iter:   2  00:57:04         -2.94    -7.238856    1      1      
iter:   3  00:57:05         -3.17    -7.238853    1      1      
iter:   4  00:57:07         -3.51    -7.238852    1      1      
iter:   5  00:57:08         -4.04    -7.238852    1      1      

Converged after 5 iterations.

Dipole moment: (0.078382, -0.008464, 0.001574) |e|*Ang

Energy contributions relative to reference atoms: (reference = -35189.668405)

Kinetic:        +30.462243
Potential:      -26.697025
External:        +0.000000
XC:             -11.042799
Entropy (-ST):   -0.000004
Local:           +0.038731
--------------------------
Free energy:     -7.238854
Extrapolated:    -7.238852

Fermi level: -2.39771

 Band  Eigenvalues  Occupancy
    0     -4.78672    2.00000
    1     -3.50750    2.00000
    2     -3.16830    2.00000
    3     -3.08749    2.00000
    4     -1.70265    0.00000
    5     -1.64197    0.00000
    6     -1.52098    0.00000
    7     -1.46722    0.00000
    8      1.32575    0.00000
    9      1.61951    0.00000

Gap: 1.385 eV
Transition (v -> c):
  (s=0, k=0, n=3, [0.00, 0.00, 0.00]) -> (s=0, k=0, n=4, [0.00, 0.00, 0.00])

Forces in eV/Ang:
  0 Na   -0.00120   -0.02202   -0.00656
  1 Na    0.00280   -0.00243   -0.00249
  2 Na    0.00321    0.01779   -0.01021
  3 Na    0.00923    0.00537    0.00018
  4 Na    0.00560    0.01385   -0.00156
  5 Na   -0.00547    0.01422   -0.00273
  6 Na   -0.00885   -0.01347    0.00749
  7 Na   -0.00304   -0.01369    0.01735

System changes: positions 

Initializing position-dependent things.

Density initialized from wave functions
           .--------------------------------------.  
          /|                                      |  
         / |                                      |  
        /  |                                      |  
       /   |                                      |  
      /    |                                      |  
     /     |                                      |  
    /      |                                      |  
   /       |                                      |  
  /        |                                      |  
 *         |                                      |  
 |         |                  Na                  |  
 |         |          Na                          |  
 |         |            Na                        |  
 |         |                Na                    |  
 |         |                   Na                 |  
 |         |        Na                            |  
 |         |                                      |  
 |         |          Na   Na                     |  
 |         |                                      |  
 |         .--------------------------------------.  
 |        /                                      /   
 |       /                                      /    
 |      /                                      /     
 |     /                                      /      
 |    /                                      /       
 |   /                                      /        
 |  /                                      /         
 | /                                      /          
 |/                                      /           
 *--------------------------------------*            

Positions:
   0 Na     9.360220    6.872427    9.394746    ( 0.0000,  0.0000,  0.0000)
   1 Na     6.709833   10.804669    8.040840    ( 0.0000,  0.0000,  0.0000)
   2 Na     9.411862   10.120827   10.111173    ( 0.0000,  0.0000,  0.0000)
   3 Na     6.186598    6.252079    8.087140    ( 0.0000,  0.0000,  0.0000)
   4 Na     9.707004    9.487171    6.865487    ( 0.0000,  0.0000,  0.0000)
   5 Na     6.541594    8.633746    5.671456    ( 0.0000,  0.0000,  0.0000)
   6 Na     6.418498    8.419911   10.456750    ( 0.0000,  0.0000,  0.0000)
   7 Na     9.052549    6.301590    6.129607    ( 0.0000,  0.0000,  0.0000)

Unit cell:
           periodic     x           y           z      points  spacing
  1. axis:    no    16.000000    0.000000    0.000000    64     0.2500
  2. axis:    no     0.000000   16.000000    0.000000    64     0.2500
  3. axis:    no     0.000000    0.000000   16.000000    64     0.2500

  Lengths:  16.000000  16.000000  16.000000
  Angles:   90.000000  90.000000  90.000000

Effective grid spacing dv^(1/3) = 0.2500

                     log10-error:    total        iterations:
           time      wfs    density  energy       fermi  poisson
iter:   1  00:57:10          +inf    -7.239552    2      1      
iter:   2  00:57:11         -2.59    -7.239511    1      1      
iter:   3  00:57:12         -2.83    -7.239497    1      1      
iter:   4  00:57:14         -3.16    -7.239494    1      1      
iter:   5  00:57:15         -3.68    -7.239494    1      1      
iter:   6  00:57:16         -3.91    -7.239494    1      1      
iter:   7  00:57:17         -4.48    -7.239494    1      1      

Converged after 7 iterations.

Dipole moment: (0.076925, -0.007882, 0.002149) |e|*Ang

Energy contributions relative to reference atoms: (reference = -35189.668405)

Kinetic:        +30.713458
Potential:      -26.897331
External:        +0.000000
XC:             -11.094669
Entropy (-ST):   -0.000004
Local:           +0.039051
--------------------------
Free energy:     -7.239496
Extrapolated:    -7.239494

Fermi level: -2.39176

 Band  Eigenvalues  Occupancy
    0     -4.79093    2.00000
    1     -3.50650    2.00000
    2     -3.17871    2.00000
    3     -3.08188    2.00000
    4     -1.69032    0.00000
    5     -1.64302    0.00000
    6     -1.52144    0.00000
    7     -1.47090    0.00000
    8      1.32149    0.00000
    9      1.60876    0.00000

Gap: 1.392 eV
Transition (v -> c):
  (s=0, k=0, n=3, [0.00, 0.00, 0.00]) -> (s=0, k=0, n=4, [0.00, 0.00, 0.00])

Forces in eV/Ang:
  0 Na    0.00774   -0.01065   -0.00032
  1 Na   -0.00925    0.00215    0.00693
  2 Na    0.00804    0.00904   -0.00324
  3 Na   -0.00535    0.00238   -0.00608
  4 Na    0.01263    0.00284   -0.00548
  5 Na   -0.00899    0.00368   -0.00986
  6 Na   -0.00840   -0.00176    0.01124
  7 Na    0.00543   -0.00782    0.00840

Timing:                                       incl.     excl.
--------------------------------------------------------------------
Basic WFS set positions:                      0.417     0.214   0.0% |
 Redistribute:                                0.203     0.203   0.0% |
Basis functions set positions:               22.856    22.856   0.4% |
Forces:                                     319.892    59.168   1.0% |
 LCAO forces:                               260.724     0.235   0.0% |
  Atomic Hamiltonian force:                   1.059     1.059   0.0% |
  Initial:                                    0.057     0.005   0.0% |
   Get density matrix:                        0.052     0.052   0.0% |
  Paw correction:                             0.929     0.929   0.0% |
  Potential:                                235.589   235.589   4.1% |-|
  TCI derivative:                            22.849    22.849   0.4% |
  Wait for sum:                               0.007     0.007   0.0% |
LCAO WFS Initialize:                        583.172     0.096   0.0% |
 Density initialized from wave functions:    79.345    38.173   0.7% |
  Calculate density matrix:                   0.043     0.043   0.0% |
  Construct density:                         41.114    41.114   0.7% |
  Symmetrize density:                         0.015     0.015   0.0% |
 Hamiltonian:                               503.730     0.065   0.0% |
  Atomic:                                    76.548     0.649   0.0% |
   XC Correction:                            75.899    75.899   1.3% ||
  Calculate atomic Hamiltonians:              3.462     3.462   0.1% |
  Communicate:                                0.005     0.005   0.0% |
  Hartree integrate/restrict:                18.803    18.803   0.3% |
  Initialize Hamiltonian:                     0.000     0.000   0.0% |
  Poisson:                                  146.308     9.591   0.2% |
   Communicate bwd 0:                        16.920    16.920   0.3% |
   Communicate bwd 1:                        10.288    10.288   0.2% |
   Communicate fwd 0:                        18.857    18.857   0.3% |
   Communicate fwd 1:                        20.683    20.683   0.4% |
   fft:                                      19.846    19.846   0.3% |
   fft2:                                     50.123    50.123   0.9% |
  XC 3D grid:                               255.476   255.476   4.5% |-|
  vbar:                                       3.064     3.064   0.1% |
P tci:                                       10.516    10.516   0.2% |
Redistribute:                                 0.098     0.098   0.0% |
SCF-cycle:                                 4681.775     5.089   0.1% |
 Density:                                   577.164     0.096   0.0% |
  Atomic density matrices:                    4.269     4.269   0.1% |
  Mix:                                      262.970   262.970   4.6% |-|
  Multipole moments:                          1.079     1.079   0.0% |
  Normalize:                                  1.233     1.233   0.0% |
  Pseudo density:                           307.517     3.184   0.1% |
   Calculate density matrix:                  0.196     0.196   0.0% |
   Construct density:                       304.028   304.028   5.3% |-|
   Symmetrize density:                        0.109     0.109   0.0% |
 Hamiltonian:                              3668.126     0.459   0.0% |
  Atomic:                                   557.246     4.835   0.1% |
   XC Correction:                           552.411   552.411   9.6% |---|
  Calculate atomic Hamiltonians:             25.266    25.266   0.4% |
  Communicate:                                0.035     0.035   0.0% |
  Hartree integrate/restrict:               168.638   168.638   2.9% ||
  Poisson:                                 1055.101    69.595   1.2% |
   Communicate bwd 0:                       123.237   123.237   2.1% ||
   Communicate bwd 1:                        74.788    74.788   1.3% ||
   Communicate fwd 0:                       130.707   130.707   2.3% ||
   Communicate fwd 1:                       149.012   149.012   2.6% ||
   fft:                                     143.794   143.794   2.5% ||
   fft2:                                    363.968   363.968   6.3% |--|
  XC 3D grid:                              1840.033  1840.033  32.1% |------------|
  vbar:                                      21.347    21.347   0.4% |
 LCAO eigensolver:                          431.396     0.419   0.0% |
  Calculate projections:                      0.303     0.303   0.0% |
  DenseAtomicCorrection:                      1.481     1.481   0.0% |
  Distribute overlap matrix:                  0.048     0.048   0.0% |
  Orbital Layouts:                            3.443     3.443   0.1% |
  Potential matrix:                         425.702   425.702   7.4% |--|
ST tci:                                       3.028     3.028   0.1% |
Set symmetry:                                 0.001     0.001   0.0% |
TCI: Evaluate splines:                        0.025     0.025   0.0% |
mktci:                                        1.615     1.615   0.0% |
Other:                                      111.933   111.933   2.0% ||
--------------------------------------------------------------------
Total:                                               5735.328 100.0%

Date: Thu Jan 30 00:57:19 2020
