------------------ Task 4 start ------------------

  ___ ___ ___ _ _ _  
 |   |   |_  | | | | 
 | | | | | . | | | | 
 |__ |  _|___|_____|  19.8.1
 |___|_|             

User:   ericlin@hebbe30-8
Date:   Mon Feb 24 11:06:21 2020
Arch:   x86_64
Pid:    6142
Python: 3.7.2
gpaw:   /apps/Hebbe7/software/MPI/intel/2019.1.144-GCC-8.2.0-2.31.1/impi/2018.4.274/GPAW/19.8.1-Python-3.7.2/lib/python3.7/site-packages/gpaw
_gpaw:  /apps/Hebbe7/software/MPI/intel/2019.1.144-GCC-8.2.0-2.31.1/impi/2018.4.274/GPAW/19.8.1-Python-3.7.2/bin/
        gpaw-python
ase:    /apps/Hebbe7/software/MPI/intel/2019.1.144-GCC-8.2.0-2.31.1/impi/2018.4.274/ASE/3.18.0-Python-3.7.2/lib/python3.7/site-packages/ase (version 3.18.0)
numpy:  /apps/Hebbe7/software/MPI/intel/2019.1.144-GCC-8.2.0-2.31.1/impi/2018.4.274/SciPy-bundle/2019.03/lib/python3.7/site-packages/numpy (version 1.16.2)
scipy:  /apps/Hebbe7/software/MPI/intel/2019.1.144-GCC-8.2.0-2.31.1/impi/2018.4.274/SciPy-bundle/2019.03/lib/python3.7/site-packages/scipy (version 1.2.1)
libxc:  4.3.4
units:  Angstrom and eV
cores:  10

Reading from ../task1/groundCalc.gpw
Read dipole, energy, free_energy
Reading input parameters:
  h: 0.3
  nbands: 0
  setups: {Na: 1}

Initialize ...

Na-setup:
  name: Sodium
  id: fa5c50181d04022fed15b2593599c257
  Z: 11
  valence: 1
  core: 10
  charge: 0.0
  file: /apps/Common/Core/GPAW-setups/0.9.20000/Na.1.LDA.gz
  compensation charges: gauss, rc=0.43, lmax=2
  cutoffs: 2.36(filt), 3.60(core),
  valence states:
                energy  radius
    3s(1.00)    -2.819   1.349
    3p(0.00)    -0.774   1.349
    *s          24.392   1.349

  Using partial waves for Na as LCAO basis

Reference energy: -35189.668405

Spin-paired calculation

Occupation numbers:
  Fermi-Dirac: width=0.0000 eV

Convergence criteria:
  Maximum total energy change: 0.0005 eV / electron
  Maximum integral of absolute density change: 0.0001 electrons
  Maximum integral of absolute eigenstate change: 4e-08 eV^2
  Maximum number of iterations: 333

Symmetries present (total): 1

  ( 1  0  0)
  ( 0  1  0)
  ( 0  0  1)

1 k-point (Gamma)
1 k-point in the irreducible part of the Brillouin zone
       k-points in crystal coordinates                weights
   0:     0.00000000    0.00000000    0.00000000          1/1

Wave functions: Uniform real-space grid
  Kinetic energy operator: 6*3+1=19 point O(h^6) finite-difference Laplacian
  ScaLapack parameters: grid=1x1, blocksize=None
  Wavefunction extrapolation:
    Wavefunctions kept unchanged if atoms move 

Eigensolver
   Davidson(niter=2, smin=None, normalize=True) 

Densities:
  Coarse grid: 68*68*72 grid
  Fine grid: 136*136*144 grid
  Total Charge: 0.000000 

No density mixing

Hamiltonian:
  XC and Coulomb potentials evaluated on a 136*136*144 grid
  Using the LDA Exchange-Correlation functional
  Interpolation: tri-quintic (5. degree polynomial)
  Poisson solver: FastPoissonSolver using
    6*3+1=19 point O(h^6) finite-difference Laplacian stencil;
    FFT axes: [];
    FST axes: [0, 1, 2].
 

Memory estimate:
  Process memory now: 110.48 MiB
  Calculator: 18.14 MiB
    Density: 7.73 MiB
      Arrays: 6.27 MiB
      Localized functions: 1.46 MiB
      Mixer: 0.00 MiB
    Hamiltonian: 4.21 MiB
      Arrays: 4.10 MiB
      XC: 0.00 MiB
      Poisson: 0.00 MiB
      vbar: 0.11 MiB
    Wavefunctions: 6.21 MiB
      Arrays psit_nG: 1.89 MiB
      Eigensolver: 4.25 MiB
      Projections: 0.00 MiB
      Projectors: 0.07 MiB

Total number of cores used: 10
Domain decomposition: 2 x 1 x 5

Number of atoms: 8
Number of atomic orbitals: 32
Number of bands in calculation: 4
Bands to converge: occupied states only
Number of valence electrons: 8

... initialized

Initializing position-dependent things.

Density initialized from wave functions
             .------------------------------------------------.  
            /|                                                |  
           / |                                                |  
          /  |                                                |  
         /   |                                                |  
        /    |                                                |  
       /     |                                                |  
      /      |                                                |  
     /       |                                                |  
    /        |                                                |  
   /         |                                                |  
  /          |                                                |  
 *           |                                                |  
 |           |                                                |  
 |           |                                                |  
 |           |                      Na                        |  
 |           |             Na                                 |  
 |           |                Na                              |  
 |           |                                                |  
 |           |                   Na  Na                       |  
 |           |            Na                                  |  
 |           |                                                |  
 |           |                Na                              |  
 |           |                   Na                           |  
 |           |                                                |  
 |           |                                                |  
 |           .------------------------------------------------.  
 |          /                                                /   
 |         /                                                /    
 |        /                                                /     
 |       /                                                /      
 |      /                                                /       
 |     /                                                /        
 |    /                                                /         
 |   /                                                /          
 |  /                                                /           
 | /                                                /            
 |/                                                /             
 *------------------------------------------------*              

Positions:
   0 Na    11.144626    8.090647   11.876539    ( 0.0000,  0.0000,  0.0000)
   1 Na    10.977844    8.000000    8.614803    ( 0.0000,  0.0000,  0.0000)
   2 Na    11.397682   11.261714   13.134418    ( 0.0000,  0.0000,  0.0000)
   3 Na    12.011229   10.994755    9.947283    ( 0.0000,  0.0000,  0.0000)
   4 Na     8.333340    9.460341   13.327794    ( 0.0000,  0.0000,  0.0000)
   5 Na     9.175418   10.970944    8.000000    ( 0.0000,  0.0000,  0.0000)
   6 Na     8.756920   12.012941   11.065977    ( 0.0000,  0.0000,  0.0000)
   7 Na     8.000000    8.603132   10.209496    ( 0.0000,  0.0000,  0.0000)



------------------------------------------
  Time-propagation TDDFT                  
------------------------------------------

Charge epsilon:  1e-05
Solver:  CSCG
Preconditioner:  None
Propagator:  SICN
States per processor =  4
------------   Task 4 TDDFT started   ------------
------------   Propagating x-direction   ------------
Delta kick =  [1e-05, 0.0, 0.0]

Starting time:    0.00 as
Time step:       30.00 as

                        Simulation     Total         log10     Iterations:
             Time          time        Energy (eV)   Norm      Propagator
iter:   0  11:06:23        0.00       -7.938261     -14.4          0
iter:  10  11:06:43      300.00       -7.938261     -14.7         63
iter:  20  11:07:03      600.00       -7.938261     -14.7         64
iter:  30  11:07:21      900.00       -7.938261     -15.6         56
iter:  40  11:07:39     1200.00       -7.938261     -15.7         58
iter:  50  11:07:58     1500.00       -7.938261     -14.7         58
iter:  60  11:08:16     1800.00       -7.938261     -14.5         58
iter:  70  11:08:34     2100.00       -7.938261     -15.0         58
iter:  80  11:08:53     2400.00       -7.938261     -15.2         58
iter:  90  11:09:11     2700.00       -7.938261     -15.1         59
Writing to Na8_td_x.dat (mode='all')

Wrote restart file.
100  iterations done. Current time is  2999.9999999999986  as.
iter: 100  11:09:37     3000.00       -7.938261     -14.6         65
iter: 110  11:09:57     3300.00       -7.938261     -15.0         65
iter: 120  11:10:16     3600.00       -7.938261     -15.3         59
iter: 130  11:10:36     3900.00       -7.938261     -14.9         65
iter: 140  11:10:55     4200.00       -7.938261     -15.0         58
iter: 150  11:11:13     4500.00       -7.938261     -14.6         59
iter: 160  11:11:32     4800.00       -7.938261     -14.9         59
iter: 170  11:11:51     5100.00       -7.938261     -15.2         58
iter: 180  11:12:09     5400.00       -7.938261     -14.8         59
iter: 190  11:12:28     5700.00       -7.938261     -15.3         58
Writing to Na8_td_x.dat (mode='all')

Wrote restart file.
200  iterations done. Current time is  6000.00000000003  as.
iter: 200  11:12:47     6000.00       -7.938261     -14.6         58
iter: 210  11:13:07     6300.00       -7.938261     -15.0         65
iter: 220  11:13:26     6600.00       -7.938261     -14.5         58
iter: 230  11:13:45     6900.00       -7.938261     -14.5         65
iter: 240  11:14:05     7200.00       -7.938261     -15.0         59
iter: 250  11:14:23     7500.00       -7.938261     -14.5         58
iter: 260  11:14:42     7800.00       -7.938261     -15.1         58
iter: 270  11:15:00     8100.00       -7.938260     -14.4         53
iter: 280  11:15:18     8400.00       -7.938260     -14.7         58
iter: 290  11:15:37     8700.00       -7.938260     -14.8         59
Writing to Na8_td_x.dat (mode='all')

Wrote restart file.
300  iterations done. Current time is  9000.0  as.
iter: 300  11:15:56     9000.00       -7.938260     -14.7         58
iter: 310  11:16:14     9300.00       -7.938260     -15.2         52
iter: 320  11:16:33     9600.00       -7.938260     -15.2         58
iter: 330  11:16:52     9900.00       -7.938260     -14.6         63
iter: 340  11:17:12    10200.00       -7.938260     -15.0         62
iter: 350  11:17:31    10500.00       -7.938260     -14.8         58
iter: 360  11:17:50    10800.00       -7.938260     -15.8         58
iter: 370  11:18:08    11100.00       -7.938260     -14.7         58
iter: 380  11:18:27    11400.00       -7.938260     -14.8         58
iter: 390  11:18:46    11700.00       -7.938260     -14.8         63
Writing to Na8_td_x.dat (mode='all')

Wrote restart file.
400  iterations done. Current time is  11999.999999999964  as.
iter: 400  11:19:06    12000.00       -7.938260     -14.5         58
iter: 410  11:19:25    12300.00       -7.938260     -14.8         58
iter: 420  11:19:44    12600.00       -7.938260     -14.7         57
iter: 430  11:20:03    12900.00       -7.938260     -14.7         58
iter: 440  11:20:22    13200.00       -7.938260     -14.5         63
iter: 450  11:20:41    13500.00       -7.938260     -15.6         59
iter: 460  11:21:01    13800.00       -7.938260     -14.7         59
iter: 470  11:21:20    14100.00       -7.938260     -14.9         59
iter: 480  11:21:40    14400.00       -7.938260     -14.8         58
iter: 490  11:21:59    14700.00       -7.938260     -14.5         58
Writing to Na8_td_x.dat (mode='all')

Wrote restart file.
500  iterations done. Current time is  15000.000000000047  as.
iter: 500  11:22:18    15000.00       -7.938260     -15.3         59
iter: 510  11:22:37    15300.00       -7.938260     -15.4         58
iter: 520  11:22:57    15600.00       -7.938260     -15.6         62
iter: 530  11:23:16    15900.00       -7.938260     -14.9         58
iter: 540  11:23:35    16200.00       -7.938260     -14.4         58
iter: 550  11:23:55    16500.00       -7.938260     -14.5         59
iter: 560  11:24:14    16800.00       -7.938260     -15.6         58
iter: 570  11:24:34    17100.00       -7.938260     -14.8         62
iter: 580  11:24:53    17400.00       -7.938260     -14.8         58
iter: 590  11:25:11    17700.00       -7.938260     -14.7         58
Writing to Na8_td_x.dat (mode='all')

Wrote restart file.
600  iterations done. Current time is  18000.00000000015  as.
iter: 600  11:25:32    18000.00       -7.938260     -14.7         62
iter: 610  11:25:51    18300.00       -7.938260     -14.9         58
iter: 620  11:26:10    18600.00       -7.938260     -15.1         62
iter: 630  11:26:30    18900.00       -7.938260     -14.7         59
iter: 640  11:26:49    19200.00       -7.938260     -15.7         59
iter: 650  11:27:08    19500.00       -7.938260     -15.7         59
iter: 660  11:27:27    19800.00       -7.938260     -15.2         58
iter: 670  11:27:47    20100.00       -7.938261     -14.6         59
iter: 680  11:28:09    20400.00       -7.938261     -14.3         59
iter: 690  11:28:30    20700.00       -7.938260     -14.4         58
Writing to Na8_td_x.dat (mode='all')

Wrote restart file.
700  iterations done. Current time is  21000.00000000025  as.
iter: 700  11:28:51    21000.00       -7.938261     -15.4         59
iter: 710  11:29:12    21300.00       -7.938261     -14.5         58
iter: 720  11:29:34    21600.00       -7.938261     -14.6         58
iter: 730  11:29:56    21900.00       -7.938261     -16.0         58
iter: 740  11:30:18    22200.00       -7.938261     -14.6         58
iter: 750  11:30:38    22500.00       -7.938261     -14.6         61
iter: 760  11:30:58    22800.00       -7.938261     -14.7         58
iter: 770  11:31:16    23100.00       -7.938260     -15.4         53
iter: 780  11:31:36    23400.00       -7.938260     -14.9         59
iter: 790  11:31:54    23700.00       -7.938261     -14.8         58
Writing to Na8_td_x.dat (mode='all')

Wrote restart file.
800  iterations done. Current time is  24000.000000000353  as.
iter: 800  11:32:13    24000.00       -7.938261     -15.0         59
iter: 810  11:32:32    24300.00       -7.938261     -14.8         58
iter: 820  11:32:51    24600.00       -7.938261     -14.8         58
iter: 830  11:33:10    24900.00       -7.938261     -14.7         63
iter: 840  11:33:29    25200.00       -7.938261     -15.0         58
iter: 850  11:33:48    25500.00       -7.938261     -14.6         59
iter: 860  11:34:08    25800.00       -7.938261     -15.6         58
iter: 870  11:34:27    26100.00       -7.938261     -14.5         59
iter: 880  11:34:46    26400.00       -7.938261     -14.7         62
iter: 890  11:35:06    26700.00       -7.938261     -15.1         58
Writing to Na8_td_x.dat (mode='all')

Wrote restart file.
900  iterations done. Current time is  27000.00000000045  as.
iter: 900  11:35:25    27000.00       -7.938261     -15.0         58
iter: 910  11:35:44    27300.00       -7.938261     -15.6         58
iter: 920  11:36:03    27600.00       -7.938261     -14.9         58
iter: 930  11:36:21    27900.00       -7.938261     -15.0         59
iter: 940  11:36:40    28200.00       -7.938261     -14.9         58
iter: 950  11:36:59    28500.00       -7.938261     -14.6         58
iter: 960  11:37:18    28800.00       -7.938261     -14.9         52
iter: 970  11:37:37    29100.00       -7.938261     -15.3         53
iter: 980  11:37:56    29400.00       -7.938261     -15.6         58
iter: 990  11:38:15    29700.00       -7.938261     -14.8         58
Writing to Na8_td_x.dat (mode='all')

Wrote restart file.
1000  iterations done. Current time is  30000.000000000553  as.
iter: 1000  11:38:33    30000.00       -7.938261     -15.0         58
iter: 1010  11:38:52    30300.00       -7.938261     -14.5         58
iter: 1020  11:39:12    30600.00       -7.938261     -14.5         58
iter: 1030  11:39:31    30900.00       -7.938261     -15.5         58
iter: 1040  11:39:50    31200.00       -7.938261     -14.8         58
iter: 1050  11:40:08    31500.00       -7.938260     -14.3         58
iter: 1060  11:40:27    31800.00       -7.938260     -14.8         58
iter: 1070  11:40:47    32100.00       -7.938260     -14.6         58
iter: 1080  11:41:06    32400.00       -7.938261     -15.1         58
iter: 1090  11:41:25    32700.00       -7.938261     -14.5         58
Writing to Na8_td_x.dat (mode='all')

Wrote restart file.
1100  iterations done. Current time is  33000.000000000655  as.
iter: 1100  11:41:44    33000.00       -7.938261     -14.7         58
iter: 1110  11:42:03    33300.00       -7.938261     -15.1         58
iter: 1120  11:42:23    33600.00       -7.938261     -14.7         65
iter: 1130  11:42:42    33900.00       -7.938261     -14.6         58
iter: 1140  11:43:02    34200.00       -7.938261     -15.0         58
iter: 1150  11:43:21    34500.00       -7.938261     -15.0         58
iter: 1160  11:43:40    34800.00       -7.938261     -15.1         58
iter: 1170  11:43:59    35100.00       -7.938261     -14.7         59
iter: 1180  11:44:18    35400.00       -7.938261     -14.7         58
iter: 1190  11:44:37    35700.00       -7.938261     -14.5         59
Writing to Na8_td_x.dat (mode='all')

Wrote restart file.
1200  iterations done. Current time is  36000.00000000076  as.
iter: 1200  11:44:56    36000.00       -7.938260     -14.7         58
iter: 1210  11:45:15    36300.00       -7.938260     -14.9         58
iter: 1220  11:45:34    36600.00       -7.938260     -15.3         58
iter: 1230  11:45:53    36900.00       -7.938260     -14.6         59
iter: 1240  11:46:12    37200.00       -7.938260     -14.8         57
iter: 1250  11:46:32    37500.00       -7.938260     -14.8         58
iter: 1260  11:46:51    37800.00       -7.938260     -14.3         59
iter: 1270  11:47:10    38100.00       -7.938260     -14.6         58
iter: 1280  11:47:30    38400.00       -7.938260     -15.0         58
iter: 1290  11:47:49    38700.00       -7.938260     -15.3         58
Writing to Na8_td_x.dat (mode='all')

Wrote restart file.
1300  iterations done. Current time is  39000.00000000086  as.
iter: 1300  11:48:08    39000.00       -7.938260     -14.9         58
iter: 1310  11:48:27    39300.00       -7.938261     -15.2         58
iter: 1320  11:48:46    39600.00       -7.938261     -14.9         59
iter: 1330  11:49:05    39900.00       -7.938261     -14.7         58
iter: 1340  11:49:24    40200.00       -7.938261     -15.0         58
iter: 1350  11:49:43    40500.00       -7.938261     -14.5         58
iter: 1360  11:50:02    40800.00       -7.938261     -14.4         58
iter: 1370  11:50:21    41100.00       -7.938261     -14.6         58
iter: 1380  11:50:40    41400.00       -7.938261     -14.7         58
iter: 1390  11:50:59    41700.00       -7.938261     -14.9         58
Writing to Na8_td_x.dat (mode='all')

Wrote restart file.
1400  iterations done. Current time is  42000.00000000096  as.
iter: 1400  11:51:18    42000.00       -7.938261     -14.3         58
iter: 1410  11:51:38    42300.00       -7.938261     -14.5         58
iter: 1420  11:51:57    42600.00       -7.938261     -15.3         58
iter: 1430  11:52:16    42900.00       -7.938261     -15.3         58
iter: 1440  11:52:36    43200.00       -7.938261     -15.6         58
iter: 1450  11:52:55    43500.00       -7.938261     -15.0         65
iter: 1460  11:53:14    43800.00       -7.938261     -15.0         59
iter: 1470  11:53:33    44100.00       -7.938261     -15.6         58
iter: 1480  11:53:52    44400.00       -7.938261     -14.8         58
iter: 1490  11:54:12    44700.00       -7.938262     -14.8         59
Writing to Na8_td_x.dat (mode='all')

Wrote restart file.
1500  iterations done. Current time is  45000.00000000106  as.
Writing to Na8_td_x.dat (mode='all')

Calculating photoabsorption spectrum from file "Na8_dm_x.dat"
Sinc contamination 0.00022440
Calculated photoabsorption spectrum saved to file "Na8_spectrum_x.dat"
-------- Propagating x-direction finished in:                 2888.03 s --------
------------   Propagating y-direction   ------------
Delta kick =  [0.0, 1e-05, 0.0]

Starting time: 45000.00 as
Time step:       30.00 as

                        Simulation     Total         log10     Iterations:
             Time          time        Energy (eV)   Norm      Propagator
iter: 1500  11:54:31    45000.00       -7.938261     -15.7          0
iter: 1510  11:54:52    45300.00       -7.938261     -14.7         64
iter: 1520  11:55:13    45600.00       -7.938261     -14.7         66
iter: 1530  11:55:34    45900.00       -7.938261     -14.7         63
iter: 1540  11:55:53    46200.00       -7.938261     -14.9         59
iter: 1550  11:56:13    46500.00       -7.938261     -15.0         66
iter: 1560  11:56:34    46800.00       -7.938261     -14.8         64
iter: 1570  11:56:53    47100.00       -7.938261     -14.6         59
iter: 1580  11:57:14    47400.00       -7.938261     -14.8         63
iter: 1590  11:57:34    47700.00       -7.938261     -14.8         60
Writing to Na8_td_y.dat (mode='all')

Wrote restart file.
1600  iterations done. Current time is  48000.000000001164  as.
iter: 1600  11:57:54    48000.00       -7.938261     -14.6         64
iter: 1610  11:58:15    48300.00       -7.938261     -15.2         67
iter: 1620  11:58:35    48600.00       -7.938261     -15.5         58
iter: 1630  11:58:56    48900.00       -7.938261     -15.2         66
iter: 1640  11:59:16    49200.00       -7.938261     -14.3         60
iter: 1650  11:59:35    49500.00       -7.938261     -15.5         63
iter: 1660  11:59:56    49800.00       -7.938261     -14.9         63
iter: 1670  12:00:16    50100.00       -7.938261     -14.7         59
iter: 1680  12:00:35    50400.00       -7.938261     -14.6         62
iter: 1690  12:00:56    50700.00       -7.938261     -15.3         62
Writing to Na8_td_y.dat (mode='all')

Wrote restart file.
1700  iterations done. Current time is  51000.000000001266  as.
iter: 1700  12:01:15    51000.00       -7.938261     -15.7         59
iter: 1710  12:01:35    51300.00       -7.938261     -15.0         66
iter: 1720  12:01:56    51600.00       -7.938261     -15.0         60
iter: 1730  12:02:17    51900.00       -7.938261     -14.4         66
iter: 1740  12:02:37    52200.00       -7.938261     -14.6         62
iter: 1750  12:02:57    52500.00       -7.938262     -14.3         63
iter: 1760  12:03:17    52800.00       -7.938262     -15.1         63
iter: 1770  12:03:37    53100.00       -7.938262     -15.1         59
iter: 1780  12:03:56    53400.00       -7.938262     -14.9         63
iter: 1790  12:04:17    53700.00       -7.938262     -15.5         63
Writing to Na8_td_y.dat (mode='all')

Wrote restart file.
1800  iterations done. Current time is  54000.00000000137  as.
iter: 1800  12:04:37    54000.00       -7.938262     -14.5         63
iter: 1810  12:04:57    54300.00       -7.938262     -14.9         63
iter: 1820  12:05:17    54600.00       -7.938262     -14.6         62
iter: 1830  12:05:37    54900.00       -7.938262     -14.3         64
iter: 1840  12:05:58    55200.00       -7.938262     -15.0         67
iter: 1850  12:06:18    55500.00       -7.938261     -14.5         59
iter: 1860  12:06:39    55800.00       -7.938261     -14.7         66
iter: 1870  12:06:59    56100.00       -7.938262     -15.0         60
iter: 1880  12:07:18    56400.00       -7.938262     -14.7         58
iter: 1890  12:07:40    56700.00       -7.938261     -14.6         64
Writing to Na8_td_y.dat (mode='all')

Wrote restart file.
1900  iterations done. Current time is  57000.00000000146  as.
iter: 1900  12:08:02    57000.00       -7.938262     -14.9         59
iter: 1910  12:08:24    57300.00       -7.938262     -14.7         63
iter: 1920  12:08:46    57600.00       -7.938262     -15.9         63
iter: 1930  12:09:09    57900.00       -7.938261     -15.1         63
iter: 1940  12:09:32    58200.00       -7.938261     -14.9         63
iter: 1950  12:09:54    58500.00       -7.938262     -14.7         63
iter: 1960  12:10:16    58800.00       -7.938261     -14.5         63
iter: 1970  12:10:36    59100.00       -7.938261     -14.5         63
iter: 1980  12:10:56    59400.00       -7.938261     -15.0         59
iter: 1990  12:11:16    59700.00       -7.938261     -15.5         64
Writing to Na8_td_y.dat (mode='all')

Wrote restart file.
2000  iterations done. Current time is  60000.000000001564  as.
iter: 2000  12:11:36    60000.00       -7.938261     -14.6         63
iter: 2010  12:11:55    60300.00       -7.938261     -15.1         59
iter: 2020  12:12:15    60600.00       -7.938261     -15.1         63
iter: 2030  12:12:35    60900.00       -7.938261     -15.6         59
iter: 2040  12:12:55    61200.00       -7.938261     -14.8         63
iter: 2050  12:13:15    61500.00       -7.938261     -15.5         62
iter: 2060  12:13:35    61800.00       -7.938261     -15.2         59
iter: 2070  12:13:55    62100.00       -7.938261     -15.4         63
iter: 2080  12:14:15    62400.00       -7.938261     -15.2         63
iter: 2090  12:14:35    62700.00       -7.938261     -14.9         62
Writing to Na8_td_y.dat (mode='all')

Wrote restart file.
2100  iterations done. Current time is  63000.000000001666  as.
iter: 2100  12:14:55    63000.00       -7.938261     -14.5         62
iter: 2110  12:15:14    63300.00       -7.938261     -14.6         59
iter: 2120  12:15:35    63600.00       -7.938261     -14.9         63
iter: 2130  12:15:55    63900.00       -7.938261     -15.0         63
iter: 2140  12:16:14    64200.00       -7.938261     -14.7         60
iter: 2150  12:16:34    64500.00       -7.938261     -14.6         63
iter: 2160  12:16:54    64800.00       -7.938261     -15.7         59
iter: 2170  12:17:14    65100.00       -7.938261     -15.1         63
iter: 2180  12:17:34    65400.00       -7.938261     -14.3         63
iter: 2190  12:17:54    65700.00       -7.938261     -15.3         62
Writing to Na8_td_y.dat (mode='all')

Wrote restart file.
2200  iterations done. Current time is  66000.00000000178  as.
iter: 2200  12:18:14    66000.00       -7.938261     -14.7         63
iter: 2210  12:18:34    66300.00       -7.938261     -15.0         58
iter: 2220  12:18:53    66600.00       -7.938261     -14.6         62
iter: 2230  12:19:14    66900.00       -7.938261     -14.6         63
iter: 2240  12:19:34    67200.00       -7.938261     -14.3         59
iter: 2250  12:19:53    67500.00       -7.938261     -14.9         66
iter: 2260  12:20:14    67800.00       -7.938261     -14.7         58
iter: 2270  12:20:33    68100.00       -7.938261     -14.8         63
iter: 2280  12:20:54    68400.00       -7.938261     -15.2         63
iter: 2290  12:21:13    68700.00       -7.938261     -14.9         59
Writing to Na8_td_y.dat (mode='all')

Wrote restart file.
2300  iterations done. Current time is  69000.00000000188  as.
iter: 2300  12:21:33    69000.00       -7.938261     -15.0         63
iter: 2310  12:21:53    69300.00       -7.938261     -14.8         59
iter: 2320  12:22:12    69600.00       -7.938261     -14.4         59
iter: 2330  12:22:32    69900.00       -7.938261     -15.1         63
iter: 2340  12:22:52    70200.00       -7.938261     -15.3         59
iter: 2350  12:23:12    70500.00       -7.938261     -14.5         63
iter: 2360  12:23:33    70800.00       -7.938261     -14.8         66
iter: 2370  12:23:52    71100.00       -7.938261     -15.7         59
iter: 2380  12:24:13    71400.00       -7.938261     -14.8         66
iter: 2390  12:24:33    71700.00       -7.938261     -14.9         59
Writing to Na8_td_y.dat (mode='all')

Wrote restart file.
2400  iterations done. Current time is  72000.00000000198  as.
iter: 2400  12:24:53    72000.00       -7.938261     -14.9         63
iter: 2410  12:25:14    72300.00       -7.938261     -14.7         63
iter: 2420  12:25:33    72600.00       -7.938261     -14.6         58
iter: 2430  12:25:53    72900.00       -7.938261     -15.1         63
iter: 2440  12:26:13    73200.00       -7.938261     -14.8         58
iter: 2450  12:26:33    73500.00       -7.938261     -14.5         59
iter: 2460  12:26:53    73800.00       -7.938261     -15.0         66
iter: 2470  12:27:13    74100.00       -7.938261     -14.7         59
iter: 2480  12:27:33    74400.00       -7.938261     -15.4         63
iter: 2490  12:27:54    74700.00       -7.938261     -15.7         64
Writing to Na8_td_y.dat (mode='all')

Wrote restart file.
2500  iterations done. Current time is  75000.00000000208  as.
iter: 2500  12:28:13    75000.00       -7.938261     -14.8         59
iter: 2510  12:28:33    75300.00       -7.938261     -14.4         65
iter: 2520  12:28:53    75600.00       -7.938261     -14.7         59
iter: 2530  12:29:15    75900.00       -7.938261     -15.7         59
iter: 2540  12:29:36    76200.00       -7.938261     -14.8         63
iter: 2550  12:29:56    76500.00       -7.938261     -14.7         58
iter: 2560  12:30:16    76800.00       -7.938261     -14.6         64
iter: 2570  12:30:37    77100.00       -7.938261     -14.8         66
iter: 2580  12:30:57    77400.00       -7.938262     -14.9         59
iter: 2590  12:31:17    77700.00       -7.938262     -15.3         66
Writing to Na8_td_y.dat (mode='all')

Wrote restart file.
2600  iterations done. Current time is  78000.00000000218  as.
iter: 2600  12:31:38    78000.00       -7.938262     -14.9         63
iter: 2610  12:31:58    78300.00       -7.938262     -14.8         63
iter: 2620  12:32:18    78600.00       -7.938262     -14.8         63
iter: 2630  12:32:37    78900.00       -7.938262     -15.0         59
iter: 2640  12:32:57    79200.00       -7.938261     -15.3         63
iter: 2650  12:33:17    79500.00       -7.938261     -15.4         59
iter: 2660  12:33:37    79800.00       -7.938261     -15.6         59
iter: 2670  12:33:57    80100.00       -7.938262     -15.2         65
iter: 2680  12:34:17    80400.00       -7.938261     -14.6         59
iter: 2690  12:34:36    80700.00       -7.938261     -14.7         57
Writing to Na8_td_y.dat (mode='all')

Wrote restart file.
2700  iterations done. Current time is  81000.00000000228  as.
iter: 2700  12:34:56    81000.00       -7.938261     -14.6         59
iter: 2710  12:35:16    81300.00       -7.938261     -14.5         59
iter: 2720  12:35:36    81600.00       -7.938261     -14.5         66
iter: 2730  12:35:56    81900.00       -7.938261     -15.1         59
iter: 2740  12:36:15    82200.00       -7.938261     -14.9         59
iter: 2750  12:36:35    82500.00       -7.938261     -14.3         63
iter: 2760  12:36:54    82800.00       -7.938261     -14.4         59
iter: 2770  12:37:14    83100.00       -7.938261     -14.9         63
iter: 2780  12:37:35    83400.00       -7.938261     -14.7         63
iter: 2790  12:37:54    83700.00       -7.938261     -14.7         64
Writing to Na8_td_y.dat (mode='all')

Wrote restart file.
2800  iterations done. Current time is  84000.00000000237  as.
iter: 2800  12:38:15    84000.00       -7.938261     -15.8         63
iter: 2810  12:38:35    84300.00       -7.938261     -15.2         59
iter: 2820  12:38:55    84600.00       -7.938261     -15.2         63
iter: 2830  12:39:15    84900.00       -7.938261     -14.4         59
iter: 2840  12:39:34    85200.00       -7.938261     -14.4         59
iter: 2850  12:39:54    85500.00       -7.938261     -14.5         63
iter: 2860  12:40:14    85800.00       -7.938261     -14.7         59
iter: 2870  12:40:34    86100.00       -7.938261     -15.3         63
iter: 2880  12:40:55    86400.00       -7.938261     -14.6         63
iter: 2890  12:41:15    86700.00       -7.938261     -15.7         59
Writing to Na8_td_y.dat (mode='all')

Wrote restart file.
2900  iterations done. Current time is  87000.00000000247  as.
iter: 2900  12:41:35    87000.00       -7.938261     -15.0         63
iter: 2910  12:41:55    87300.00       -7.938261     -14.7         60
iter: 2920  12:42:14    87600.00       -7.938261     -14.9         63
iter: 2930  12:42:34    87900.00       -7.938261     -14.9         63
iter: 2940  12:42:54    88200.00       -7.938261     -15.1         59
iter: 2950  12:43:14    88500.00       -7.938261     -14.6         63
iter: 2960  12:43:34    88800.00       -7.938261     -14.6         60
iter: 2970  12:43:53    89100.00       -7.938261     -14.6         59
iter: 2980  12:44:14    89400.00       -7.938261     -14.5         64
iter: 2990  12:44:34    89700.00       -7.938261     -14.9         60
Writing to Na8_td_y.dat (mode='all')

Wrote restart file.
3000  iterations done. Current time is  90000.00000000258  as.
Writing to Na8_td_y.dat (mode='all')

Calculating photoabsorption spectrum from file "Na8_dm_y.dat"
Sinc contamination 0.00000000
Calculated photoabsorption spectrum saved to file "Na8_spectrum_y.dat"
-------- Propagating y-direction finished in:                 5910.97 s --------
------------   Propagating z-direction   ------------
Delta kick =  [0.0, 0.0, 1e-05]

Starting time: 90000.00 as
Time step:       30.00 as

                        Simulation     Total         log10     Iterations:
             Time          time        Energy (eV)   Norm      Propagator
iter: 3000  12:44:54    90000.00       -7.938261     -14.9          0
iter: 3010  12:45:15    90300.00       -7.938261     -14.9         64
iter: 3020  12:45:36    90600.00       -7.938261     -15.3         66
iter: 3030  12:45:56    90900.00       -7.938261     -14.6         63
iter: 3040  12:46:16    91200.00       -7.938261     -14.7         59
iter: 3050  12:46:36    91500.00       -7.938261     -14.9         66
iter: 3060  12:46:56    91800.00       -7.938261     -14.8         64
iter: 3070  12:47:16    92100.00       -7.938261     -14.4         64
iter: 3080  12:47:37    92400.00       -7.938261     -14.4         66
iter: 3090  12:47:58    92700.00       -7.938261     -15.5         63
Writing to Na8_td_z.dat (mode='all')

Wrote restart file.
3100  iterations done. Current time is  93000.00000000268  as.
iter: 3100  12:48:17    93000.00       -7.938261     -14.5         63
iter: 3110  12:48:38    93300.00       -7.938261     -15.8         67
iter: 3120  12:48:59    93600.00       -7.938261     -14.7         59
iter: 3130  12:49:20    93900.00       -7.938261     -14.7         67
iter: 3140  12:49:41    94200.00       -7.938261     -15.1         65
iter: 3150  12:50:00    94500.00       -7.938261     -14.5         63
iter: 3160  12:50:21    94800.00       -7.938261     -15.4         66
iter: 3170  12:50:41    95100.00       -7.938261     -14.5         60
iter: 3180  12:51:01    95400.00       -7.938261     -15.0         63
iter: 3190  12:51:21    95700.00       -7.938261     -14.7         66
Writing to Na8_td_z.dat (mode='all')

Wrote restart file.
3200  iterations done. Current time is  96000.00000000278  as.
iter: 3200  12:51:41    96000.00       -7.938261     -14.9         59
iter: 3210  12:52:01    96300.00       -7.938261     -14.5         63
iter: 3220  12:52:22    96600.00       -7.938261     -15.1         64
iter: 3230  12:52:42    96900.00       -7.938261     -14.6         64
iter: 3240  12:53:03    97200.00       -7.938261     -14.5         67
iter: 3250  12:53:24    97500.00       -7.938261     -15.5         62
iter: 3260  12:53:44    97800.00       -7.938261     -14.6         63
iter: 3270  12:54:04    98100.00       -7.938261     -15.0         63
iter: 3280  12:54:24    98400.00       -7.938261     -15.0         60
iter: 3290  12:54:45    98700.00       -7.938261     -14.8         64
Writing to Na8_td_z.dat (mode='all')

Wrote restart file.
3300  iterations done. Current time is  99000.00000000288  as.
iter: 3300  12:55:05    99000.00       -7.938261     -14.9         63
iter: 3310  12:55:25    99300.00       -7.938261     -14.7         63
iter: 3320  12:55:46    99600.00       -7.938261     -14.9         66
iter: 3330  12:56:06    99900.00       -7.938261     -14.8         62
iter: 3340  12:56:27   100200.00       -7.938261     -15.2         66
iter: 3350  12:56:48   100500.00       -7.938261     -15.0         63
iter: 3360  12:57:08   100800.00       -7.938261     -14.7         63
iter: 3370  12:57:29   101100.00       -7.938261     -14.8         64
iter: 3380  12:57:51   101400.00       -7.938261     -14.5         63
iter: 3390  12:58:14   101700.00       -7.938262     -15.4         63
Writing to Na8_td_z.dat (mode='all')

Wrote restart file.
3400  iterations done. Current time is  102000.00000000298  as.
iter: 3400  12:58:37   102000.00       -7.938261     -15.1         63
iter: 3410  12:59:00   102300.00       -7.938262     -15.5         61
iter: 3420  12:59:23   102600.00       -7.938262     -15.7         66
iter: 3430  12:59:46   102900.00       -7.938262     -15.1         63
iter: 3440  13:00:06   103200.00       -7.938261     -15.6         64
iter: 3450  13:00:26   103500.00       -7.938261     -15.0         66
iter: 3460  13:00:46   103800.00       -7.938262     -14.7         60
iter: 3470  13:01:07   104100.00       -7.938262     -15.6         66
iter: 3480  13:01:28   104400.00       -7.938262     -14.5         59
iter: 3490  13:01:48   104700.00       -7.938262     -15.0         64
Writing to Na8_td_z.dat (mode='all')

Wrote restart file.
3500  iterations done. Current time is  105000.00000000309  as.
iter: 3500  13:02:09   105000.00       -7.938262     -14.4         66
iter: 3510  13:02:29   105300.00       -7.938262     -14.5         60
iter: 3520  13:02:49   105600.00       -7.938262     -14.3         66
iter: 3530  13:03:10   105900.00       -7.938262     -14.8         63
iter: 3540  13:03:30   106200.00       -7.938262     -14.6         63
iter: 3550  13:03:50   106500.00       -7.938262     -14.9         66
iter: 3560  13:04:11   106800.00       -7.938262     -15.3         63
iter: 3570  13:04:31   107100.00       -7.938262     -14.7         67
iter: 3580  13:04:52   107400.00       -7.938262     -14.7         63
iter: 3590  13:05:12   107700.00       -7.938262     -14.6         64
Writing to Na8_td_z.dat (mode='all')

Wrote restart file.
3600  iterations done. Current time is  108000.00000000319  as.
iter: 3600  13:05:33   108000.00       -7.938262     -14.3         66
iter: 3610  13:05:53   108300.00       -7.938262     -15.0         66
iter: 3620  13:06:14   108600.00       -7.938262     -14.7         63
iter: 3630  13:06:35   108900.00       -7.938262     -15.8         66
iter: 3640  13:06:56   109200.00       -7.938262     -14.6         64
iter: 3650  13:07:16   109500.00       -7.938262     -14.4         66
iter: 3660  13:07:36   109800.00       -7.938262     -15.6         66
iter: 3670  13:07:57   110100.00       -7.938262     -15.6         64
iter: 3680  13:08:17   110400.00       -7.938262     -14.6         66
iter: 3690  13:08:38   110700.00       -7.938262     -14.7         63
Writing to Na8_td_z.dat (mode='all')

Wrote restart file.
3700  iterations done. Current time is  111000.00000000329  as.
iter: 3700  13:08:59   111000.00       -7.938262     -15.5         66
iter: 3710  13:09:20   111300.00       -7.938262     -14.6         66
iter: 3720  13:09:41   111600.00       -7.938262     -15.1         66
iter: 3730  13:10:02   111900.00       -7.938262     -15.3         66
iter: 3740  13:10:23   112200.00       -7.938262     -15.0         66
iter: 3750  13:10:44   112500.00       -7.938262     -15.1         66
iter: 3760  13:11:04   112800.00       -7.938262     -14.5         66
iter: 3770  13:11:25   113100.00       -7.938262     -14.6         66
iter: 3780  13:11:46   113400.00       -7.938262     -14.7         66
iter: 3790  13:12:07   113700.00       -7.938262     -14.5         66
Writing to Na8_td_z.dat (mode='all')

Wrote restart file.
3800  iterations done. Current time is  114000.00000000339  as.
iter: 3800  13:12:27   114000.00       -7.938262     -14.6         66
iter: 3810  13:12:48   114300.00       -7.938262     -14.6         64
iter: 3820  13:13:08   114600.00       -7.938262     -15.3         66
iter: 3830  13:13:29   114900.00       -7.938262     -14.6         66
iter: 3840  13:13:50   115200.00       -7.938262     -15.0         64
iter: 3850  13:14:10   115500.00       -7.938262     -14.5         66
iter: 3860  13:14:31   115800.00       -7.938262     -15.6         66
iter: 3870  13:14:51   116100.00       -7.938262     -15.4         66
iter: 3880  13:15:13   116400.00       -7.938262     -14.5         66
iter: 3890  13:15:34   116700.00       -7.938262     -14.8         64
Writing to Na8_td_z.dat (mode='all')

Wrote restart file.
3900  iterations done. Current time is  117000.00000000349  as.
iter: 3900  13:15:55   117000.00       -7.938262     -14.7         66
iter: 3910  13:16:15   117300.00       -7.938262     -15.2         66
iter: 3920  13:16:35   117600.00       -7.938262     -15.0         63
iter: 3930  13:16:56   117900.00       -7.938262     -15.2         66
iter: 3940  13:17:16   118200.00       -7.938262     -15.0         63
iter: 3950  13:17:37   118500.00       -7.938262     -14.3         66
iter: 3960  13:17:57   118800.00       -7.938262     -14.8         66
iter: 3970  13:18:17   119100.00       -7.938262     -14.7         60
iter: 3980  13:18:38   119400.00       -7.938262     -15.1         66
iter: 3990  13:18:59   119700.00       -7.938262     -15.7         66
Writing to Na8_td_z.dat (mode='all')

Wrote restart file.
4000  iterations done. Current time is  120000.0000000036  as.
iter: 4000  13:19:18   120000.00       -7.938262     -15.0         64
iter: 4010  13:19:39   120300.00       -7.938262     -14.5         66
iter: 4020  13:20:00   120600.00       -7.938261     -15.2         63
iter: 4030  13:20:20   120900.00       -7.938261     -14.8         59
iter: 4040  13:20:40   121200.00       -7.938261     -15.3         66
iter: 4050  13:21:00   121500.00       -7.938262     -14.7         60
iter: 4060  13:21:20   121800.00       -7.938262     -15.0         66
iter: 4070  13:21:41   122100.00       -7.938262     -14.7         63
iter: 4080  13:22:01   122400.00       -7.938262     -15.0         66
iter: 4090  13:22:21   122700.00       -7.938262     -15.1         66
Writing to Na8_td_z.dat (mode='all')

Wrote restart file.
4100  iterations done. Current time is  123000.0000000037  as.
iter: 4100  13:22:41   123000.00       -7.938262     -15.4         60
iter: 4110  13:23:01   123300.00       -7.938262     -15.2         66
iter: 4120  13:23:22   123600.00       -7.938262     -15.9         64
iter: 4130  13:23:42   123900.00       -7.938262     -14.8         64
iter: 4140  13:24:02   124200.00       -7.938262     -14.9         64
iter: 4150  13:24:22   124500.00       -7.938262     -14.9         62
iter: 4160  13:24:42   124800.00       -7.938262     -14.9         64
iter: 4170  13:25:02   125100.00       -7.938262     -15.1         63
iter: 4180  13:25:23   125400.00       -7.938262     -15.2         61
iter: 4190  13:25:42   125700.00       -7.938262     -15.0         63
Writing to Na8_td_z.dat (mode='all')

Wrote restart file.
4200  iterations done. Current time is  126000.0000000038  as.
iter: 4200  13:26:03   126000.00       -7.938262     -14.6         63
iter: 4210  13:26:23   126300.00       -7.938262     -15.9         64
iter: 4220  13:26:43   126600.00       -7.938262     -15.4         64
iter: 4230  13:27:03   126900.00       -7.938261     -14.7         63
iter: 4240  13:27:23   127200.00       -7.938261     -14.5         63
iter: 4250  13:27:43   127500.00       -7.938261     -14.7         62
iter: 4260  13:28:03   127800.00       -7.938261     -15.3         62
iter: 4270  13:28:22   128100.00       -7.938261     -14.4         63
iter: 4280  13:28:42   128400.00       -7.938261     -14.7         62
iter: 4290  13:29:02   128700.00       -7.938262     -14.8         63
Writing to Na8_td_z.dat (mode='all')

Wrote restart file.
4300  iterations done. Current time is  129000.0000000039  as.
iter: 4300  13:29:22   129000.00       -7.938261     -14.6         64
iter: 4310  13:29:42   129300.00       -7.938262     -15.3         63
iter: 4320  13:30:03   129600.00       -7.938262     -15.2         63
iter: 4330  13:30:23   129900.00       -7.938262     -14.6         61
iter: 4340  13:30:43   130200.00       -7.938262     -14.9         63
iter: 4350  13:31:03   130500.00       -7.938262     -15.1         62
iter: 4360  13:31:23   130800.00       -7.938262     -15.5         63
iter: 4370  13:31:43   131100.00       -7.938262     -14.5         62
iter: 4380  13:32:03   131400.00       -7.938262     -15.0         62
iter: 4390  13:32:22   131700.00       -7.938262     -14.7         63
Writing to Na8_td_z.dat (mode='all')

Wrote restart file.
4400  iterations done. Current time is  132000.00000000402  as.
iter: 4400  13:32:43   132000.00       -7.938262     -14.8         62
iter: 4410  13:33:03   132300.00       -7.938262     -14.5         64
iter: 4420  13:33:22   132600.00       -7.938262     -14.5         62
iter: 4430  13:33:42   132900.00       -7.938262     -15.8         64
iter: 4440  13:34:02   133200.00       -7.938262     -14.5         59
iter: 4450  13:34:22   133500.00       -7.938262     -14.9         64
iter: 4460  13:34:42   133800.00       -7.938262     -14.9         64
iter: 4470  13:35:02   134100.00       -7.938262     -14.9         60
iter: 4480  13:35:22   134400.00       -7.938263     -15.2         63
iter: 4490  13:35:42   134700.00       -7.938263     -14.5         59
Writing to Na8_td_z.dat (mode='all')

Wrote restart file.
4500  iterations done. Current time is  135000.0000000041  as.
Writing to Na8_td_z.dat (mode='all')

Calculating photoabsorption spectrum from file "Na8_dm_z.dat"
Sinc contamination 0.00000000
Calculated photoabsorption spectrum saved to file "Na8_spectrum_z.dat"
-------- Propagating z-direction finished in:                 8979.31 s --------
-------- TDDFT calculation finished in:                 8979.31 s --------
----------------------------------------------------------------------
Timing:                                      incl.     excl.
-------------------------------------------------------------------
Apply approximate inverse overlap:           0.002     0.002   0.0% |
Apply time-dependent operators:              0.021     0.021   0.0% |
CSCG:                                        0.120     0.062   0.0% |
 Apply time-dependent operators:             0.053     0.053   0.0% |
 Solve TDDFT preconditioner:                 0.005     0.005   0.0% |
Density initialized from wave functions:     0.016     0.016   0.0% |
 Symmetrize density:                         0.000     0.000   0.0% |
Hamiltonian:                                 0.171     0.000   0.0% |
 Atomic:                                     0.000     0.000   0.0% |
  XC Correction:                             0.000     0.000   0.0% |
 Calculate atomic Hamiltonians:              0.000     0.000   0.0% |
 Communicate:                                0.016     0.016   0.0% |
 Hartree integrate/restrict:                 0.007     0.007   0.0% |
 Poisson:                                    0.101     0.004   0.0% |
  Communicate bwd 0:                         0.021     0.021   0.0% |
  Communicate bwd 1:                         0.022     0.022   0.0% |
  Communicate fwd 0:                         0.009     0.009   0.0% |
  Communicate fwd 1:                         0.022     0.022   0.0% |
  fft:                                       0.006     0.006   0.0% |
  fft2:                                      0.017     0.017   0.0% |
 XC 3D grid:                                 0.043     0.043   0.0% |
 vbar:                                       0.002     0.002   0.0% |
Propagate:                                8978.221    97.736   1.1% |
 Apply approximate inverse overlap:          6.459     6.459   0.1% |
 Apply time-dependent operators:           134.973   134.973   1.5% ||
 CSCG:                                    6994.900  2900.869  32.3% |------------|
  Apply time-dependent operators:         3799.386  3799.386  42.3% |----------------|
  Solve TDDFT preconditioner:              294.646   294.646   3.3% ||
 Density:                                    6.168     0.012   0.0% |
  Atomic density matrices:                   0.750     0.750   0.0% |
  Mix:                                       5.042     5.042   0.1% |
  Multipole moments:                         0.076     0.076   0.0% |
  Pseudo density:                            0.288     0.281   0.0% |
   Symmetrize density:                       0.006     0.006   0.0% |
 Hamiltonian:                               77.605     0.083   0.0% |
  Atomic:                                    0.142     0.140   0.0% |
   XC Correction:                            0.002     0.002   0.0% |
  Calculate atomic Hamiltonians:             0.119     0.119   0.0% |
  Communicate:                               7.172     7.172   0.1% |
  Hartree integrate/restrict:                4.743     4.743   0.1% |
  Poisson:                                  45.172     1.501   0.0% |
   Communicate bwd 0:                       10.493    10.493   0.1% |
   Communicate bwd 1:                        9.536     9.536   0.1% |
   Communicate fwd 0:                        3.241     3.241   0.0% |
   Communicate fwd 1:                       10.040    10.040   0.1% |
   fft:                                      2.851     2.851   0.0% |
   fft2:                                     7.510     7.510   0.1% |
  XC 3D grid:                               19.242    19.242   0.2% |
  vbar:                                      0.931     0.931   0.0% |
 Update time-dependent operators:         1660.380     2.522   0.0% |
  Density:                                 124.756     0.199   0.0% |
   Atomic density matrices:                 15.627    15.627   0.2% |
   Mix:                                    101.800   101.800   1.1% |
   Multipole moments:                        1.553     1.553   0.0% |
   Pseudo density:                           5.578     5.454   0.1% |
    Symmetrize density:                      0.124     0.124   0.0% |
  Hamiltonian:                            1533.102     1.206   0.0% |
   Atomic:                                   2.832     2.787   0.0% |
    XC Correction:                           0.045     0.045   0.0% |
   Calculate atomic Hamiltonians:            2.359     2.359   0.0% |
   Communicate:                            144.806   144.806   1.6% ||
   Hartree integrate/restrict:              93.932    93.932   1.0% |
   Poisson:                                883.620    30.422   0.3% |
    Communicate bwd 0:                     205.539   205.539   2.3% ||
    Communicate bwd 1:                     185.976   185.976   2.1% ||
    Communicate fwd 0:                      63.385    63.385   0.7% |
    Communicate fwd 1:                     195.697   195.697   2.2% ||
    fft:                                    56.035    56.035   0.6% |
    fft2:                                  146.566   146.566   1.6% ||
   XC 3D grid:                             384.964   384.964   4.3% |-|
   vbar:                                    19.384    19.384   0.2% |
Redistribute:                                0.001     0.001   0.0% |
Set symmetry:                                0.001     0.001   0.0% |
Update time-dependent operators:             0.000     0.000   0.0% |
Other:                                       2.176     2.176   0.0% |
-------------------------------------------------------------------
Total:                                              8980.729 100.0%

Memory usage: 165.67 MiB
Date: Mon Feb 24 13:36:02 2020
------------------ Task 4 done -------------------
