#  #

8    atoms
1  atom types

0.0000000000  22.0160000000   xlo xhi
0.0000000000  27.5200000000   ylo yhi
0.0000000000  27.5200000000   zlo zhi

Masses

1  58.700000

Atoms

1       1   0.0000000000   0.0000000000   0.0000000000
2       1   2.7520000000   0.0000000000   0.0000000000
3       1   5.5040000000   0.0000000000   0.0000000000
4       1   8.2560000000   0.0000000000   0.0000000000
5       1  11.0080000000   0.0000000000   0.0000000000
6       1  13.7600000000   0.0000000000   0.0000000000
7       1  16.5120000000   0.0000000000   0.0000000000
8       1  19.2640000000   0.0000000000   0.0000000000
