ITEM: TIMESTEP
0
ITEM: NUMBER OF ATOMS
8
ITEM: BOX BOUNDS pp pp pp
0 22.016
0 27.52
0 27.52
ITEM: ATOMS id type mass x y z fx fy fz 
1 1         58.7                      0                      0                      0   1.79370407416002e-15                      0                      0 
2 1         58.7                  2.752                      0                      0  -1.04083408558608e-16                      0                      0 
3 1         58.7                  5.504                      0                      0    1.6002824065886e-15                      0                      0 
4 1         58.7                  8.256                      0                      0  -3.41436948159135e-15                      0                      0 
5 1         58.7                 11.008                      0                      0   3.38574654423773e-15                      0                      0 
6 1         58.7                  13.76                      0                      0   8.67361737988404e-19                      0                      0 
7 1         58.7                 16.512                      0                      0  -3.32503122257854e-15                      0                      0 
8 1         58.7                 19.264                      0                      0   6.11490025281825e-17                      0                      0 
