#  #

40000  atoms
1  atom types

0.00000000 158.26000000  xlo xhi
0.00000000 63.30400000  ylo yhi
0.00000000 63.30400000  zlo zhi

Atoms

1   1  0.00000000 0.00000000 0.00000000
2   1  1.58260000 1.58260000 1.58260000
3   1  0.00000000 0.00000000 3.16520000
4   1  1.58260000 1.58260000 4.74780000
5   1  0.00000000 0.00000000 6.33040000
6   1  1.58260000 1.58260000 7.91300000
7   1  0.00000000 0.00000000 9.49560000
8   1  1.58260000 1.58260000 11.07820000
9   1  0.00000000 0.00000000 12.66080000
10   1  1.58260000 1.58260000 14.24340000
11   1  0.00000000 0.00000000 15.82600000
12   1  1.58260000 1.58260000 17.40860000
13   1  0.00000000 0.00000000 18.99120000
14   1  1.58260000 1.58260000 20.57380000
15   1  0.00000000 0.00000000 22.15640000
16   1  1.58260000 1.58260000 23.73900000
17   1  0.00000000 0.00000000 25.32160000
18   1  1.58260000 1.58260000 26.90420000
19   1  0.00000000 0.00000000 28.48680000
20   1  1.58260000 1.58260000 30.06940000
21   1  0.00000000 0.00000000 31.65200000
22   1  1.58260000 1.58260000 33.23460000
23   1  0.00000000 0.00000000 34.81720000
24   1  1.58260000 1.58260000 36.39980000
25   1  0.00000000 0.00000000 37.98240000
26   1  1.58260000 1.58260000 39.56500000
27   1  0.00000000 0.00000000 41.14760000
28   1  1.58260000 1.58260000 42.73020000
29   1  0.00000000 0.00000000 44.31280000
30   1  1.58260000 1.58260000 45.89540000
31   1  0.00000000 0.00000000 47.47800000
32   1  1.58260000 1.58260000 49.06060000
33   1  0.00000000 0.00000000 50.64320000
34   1  1.58260000 1.58260000 52.22580000
35   1  0.00000000 0.00000000 53.80840000
36   1  1.58260000 1.58260000 55.39100000
37   1  0.00000000 0.00000000 56.97360000
38   1  1.58260000 1.58260000 58.55620000
39   1  0.00000000 0.00000000 60.13880000
40   1  1.58260000 1.58260000 61.72140000
41   1  0.00000000 3.16520000 0.00000000
42   1  1.58260000 4.74780000 1.58260000
43   1  0.00000000 3.16520000 3.16520000
44   1  1.58260000 4.74780000 4.74780000
45   1  0.00000000 3.16520000 6.33040000
46   1  1.58260000 4.74780000 7.91300000
47   1  0.00000000 3.16520000 9.49560000
48   1  1.58260000 4.74780000 11.07820000
49   1  0.00000000 3.16520000 12.66080000
50   1  1.58260000 4.74780000 14.24340000
51   1  0.00000000 3.16520000 15.82600000
52   1  1.58260000 4.74780000 17.40860000
53   1  0.00000000 3.16520000 18.99120000
54   1  1.58260000 4.74780000 20.57380000
55   1  0.00000000 3.16520000 22.15640000
56   1  1.58260000 4.74780000 23.73900000
57   1  0.00000000 3.16520000 25.32160000
58   1  1.58260000 4.74780000 26.90420000
59   1  0.00000000 3.16520000 28.48680000
60   1  1.58260000 4.74780000 30.06940000
61   1  0.00000000 3.16520000 31.65200000
62   1  1.58260000 4.74780000 33.23460000
63   1  0.00000000 3.16520000 34.81720000
64   1  1.58260000 4.74780000 36.39980000
65   1  0.00000000 3.16520000 37.98240000
66   1  1.58260000 4.74780000 39.56500000
67   1  0.00000000 3.16520000 41.14760000
68   1  1.58260000 4.74780000 42.73020000
69   1  0.00000000 3.16520000 44.31280000
70   1  1.58260000 4.74780000 45.89540000
71   1  0.00000000 3.16520000 47.47800000
72   1  1.58260000 4.74780000 49.06060000
73   1  0.00000000 3.16520000 50.64320000
74   1  1.58260000 4.74780000 52.22580000
75   1  0.00000000 3.16520000 53.80840000
76   1  1.58260000 4.74780000 55.39100000
77   1  0.00000000 3.16520000 56.97360000
78   1  1.58260000 4.74780000 58.55620000
79   1  0.00000000 3.16520000 60.13880000
80   1  1.58260000 4.74780000 61.72140000
81   1  0.00000000 6.33040000 0.00000000
82   1  1.58260000 7.91300000 1.58260000
83   1  0.00000000 6.33040000 3.16520000
84   1  1.58260000 7.91300000 4.74780000
85   1  0.00000000 6.33040000 6.33040000
86   1  1.58260000 7.91300000 7.91300000
87   1  0.00000000 6.33040000 9.49560000
88   1  1.58260000 7.91300000 11.07820000
89   1  0.00000000 6.33040000 12.66080000
90   1  1.58260000 7.91300000 14.24340000
91   1  0.00000000 6.33040000 15.82600000
92   1  1.58260000 7.91300000 17.40860000
93   1  0.00000000 6.33040000 18.99120000
94   1  1.58260000 7.91300000 20.57380000
95   1  0.00000000 6.33040000 22.15640000
96   1  1.58260000 7.91300000 23.73900000
97   1  0.00000000 6.33040000 25.32160000
98   1  1.58260000 7.91300000 26.90420000
99   1  0.00000000 6.33040000 28.48680000
100   1  1.58260000 7.91300000 30.06940000
101   1  0.00000000 6.33040000 31.65200000
102   1  1.58260000 7.91300000 33.23460000
103   1  0.00000000 6.33040000 34.81720000
104   1  1.58260000 7.91300000 36.39980000
105   1  0.00000000 6.33040000 37.98240000
106   1  1.58260000 7.91300000 39.56500000
107   1  0.00000000 6.33040000 41.14760000
108   1  1.58260000 7.91300000 42.73020000
109   1  0.00000000 6.33040000 44.31280000
110   1  1.58260000 7.91300000 45.89540000
111   1  0.00000000 6.33040000 47.47800000
112   1  1.58260000 7.91300000 49.06060000
113   1  0.00000000 6.33040000 50.64320000
114   1  1.58260000 7.91300000 52.22580000
115   1  0.00000000 6.33040000 53.80840000
116   1  1.58260000 7.91300000 55.39100000
117   1  0.00000000 6.33040000 56.97360000
118   1  1.58260000 7.91300000 58.55620000
119   1  0.00000000 6.33040000 60.13880000
120   1  1.58260000 7.91300000 61.72140000
121   1  0.00000000 9.49560000 0.00000000
122   1  1.58260000 11.07820000 1.58260000
123   1  0.00000000 9.49560000 3.16520000
124   1  1.58260000 11.07820000 4.74780000
125   1  0.00000000 9.49560000 6.33040000
126   1  1.58260000 11.07820000 7.91300000
127   1  0.00000000 9.49560000 9.49560000
128   1  1.58260000 11.07820000 11.07820000
129   1  0.00000000 9.49560000 12.66080000
130   1  1.58260000 11.07820000 14.24340000
131   1  0.00000000 9.49560000 15.82600000
132   1  1.58260000 11.07820000 17.40860000
133   1  0.00000000 9.49560000 18.99120000
134   1  1.58260000 11.07820000 20.57380000
135   1  0.00000000 9.49560000 22.15640000
136   1  1.58260000 11.07820000 23.73900000
137   1  0.00000000 9.49560000 25.32160000
138   1  1.58260000 11.07820000 26.90420000
139   1  0.00000000 9.49560000 28.48680000
140   1  1.58260000 11.07820000 30.06940000
141   1  0.00000000 9.49560000 31.65200000
142   1  1.58260000 11.07820000 33.23460000
143   1  0.00000000 9.49560000 34.81720000
144   1  1.58260000 11.07820000 36.39980000
145   1  0.00000000 9.49560000 37.98240000
146   1  1.58260000 11.07820000 39.56500000
147   1  0.00000000 9.49560000 41.14760000
148   1  1.58260000 11.07820000 42.73020000
149   1  0.00000000 9.49560000 44.31280000
150   1  1.58260000 11.07820000 45.89540000
151   1  0.00000000 9.49560000 47.47800000
152   1  1.58260000 11.07820000 49.06060000
153   1  0.00000000 9.49560000 50.64320000
154   1  1.58260000 11.07820000 52.22580000
155   1  0.00000000 9.49560000 53.80840000
156   1  1.58260000 11.07820000 55.39100000
157   1  0.00000000 9.49560000 56.97360000
158   1  1.58260000 11.07820000 58.55620000
159   1  0.00000000 9.49560000 60.13880000
160   1  1.58260000 11.07820000 61.72140000
161   1  0.00000000 12.66080000 0.00000000
162   1  1.58260000 14.24340000 1.58260000
163   1  0.00000000 12.66080000 3.16520000
164   1  1.58260000 14.24340000 4.74780000
165   1  0.00000000 12.66080000 6.33040000
166   1  1.58260000 14.24340000 7.91300000
167   1  0.00000000 12.66080000 9.49560000
168   1  1.58260000 14.24340000 11.07820000
169   1  0.00000000 12.66080000 12.66080000
170   1  1.58260000 14.24340000 14.24340000
171   1  0.00000000 12.66080000 15.82600000
172   1  1.58260000 14.24340000 17.40860000
173   1  0.00000000 12.66080000 18.99120000
174   1  1.58260000 14.24340000 20.57380000
175   1  0.00000000 12.66080000 22.15640000
176   1  1.58260000 14.24340000 23.73900000
177   1  0.00000000 12.66080000 25.32160000
178   1  1.58260000 14.24340000 26.90420000
179   1  0.00000000 12.66080000 28.48680000
180   1  1.58260000 14.24340000 30.06940000
181   1  0.00000000 12.66080000 31.65200000
182   1  1.58260000 14.24340000 33.23460000
183   1  0.00000000 12.66080000 34.81720000
184   1  1.58260000 14.24340000 36.39980000
185   1  0.00000000 12.66080000 37.98240000
186   1  1.58260000 14.24340000 39.56500000
187   1  0.00000000 12.66080000 41.14760000
188   1  1.58260000 14.24340000 42.73020000
189   1  0.00000000 12.66080000 44.31280000
190   1  1.58260000 14.24340000 45.89540000
191   1  0.00000000 12.66080000 47.47800000
192   1  1.58260000 14.24340000 49.06060000
193   1  0.00000000 12.66080000 50.64320000
194   1  1.58260000 14.24340000 52.22580000
195   1  0.00000000 12.66080000 53.80840000
196   1  1.58260000 14.24340000 55.39100000
197   1  0.00000000 12.66080000 56.97360000
198   1  1.58260000 14.24340000 58.55620000
199   1  0.00000000 12.66080000 60.13880000
200   1  1.58260000 14.24340000 61.72140000
201   1  0.00000000 15.82600000 0.00000000
202   1  1.58260000 17.40860000 1.58260000
203   1  0.00000000 15.82600000 3.16520000
204   1  1.58260000 17.40860000 4.74780000
205   1  0.00000000 15.82600000 6.33040000
206   1  1.58260000 17.40860000 7.91300000
207   1  0.00000000 15.82600000 9.49560000
208   1  1.58260000 17.40860000 11.07820000
209   1  0.00000000 15.82600000 12.66080000
210   1  1.58260000 17.40860000 14.24340000
211   1  0.00000000 15.82600000 15.82600000
212   1  1.58260000 17.40860000 17.40860000
213   1  0.00000000 15.82600000 18.99120000
214   1  1.58260000 17.40860000 20.57380000
215   1  0.00000000 15.82600000 22.15640000
216   1  1.58260000 17.40860000 23.73900000
217   1  0.00000000 15.82600000 25.32160000
218   1  1.58260000 17.40860000 26.90420000
219   1  0.00000000 15.82600000 28.48680000
220   1  1.58260000 17.40860000 30.06940000
221   1  0.00000000 15.82600000 31.65200000
222   1  1.58260000 17.40860000 33.23460000
223   1  0.00000000 15.82600000 34.81720000
224   1  1.58260000 17.40860000 36.39980000
225   1  0.00000000 15.82600000 37.98240000
226   1  1.58260000 17.40860000 39.56500000
227   1  0.00000000 15.82600000 41.14760000
228   1  1.58260000 17.40860000 42.73020000
229   1  0.00000000 15.82600000 44.31280000
230   1  1.58260000 17.40860000 45.89540000
231   1  0.00000000 15.82600000 47.47800000
232   1  1.58260000 17.40860000 49.06060000
233   1  0.00000000 15.82600000 50.64320000
234   1  1.58260000 17.40860000 52.22580000
235   1  0.00000000 15.82600000 53.80840000
236   1  1.58260000 17.40860000 55.39100000
237   1  0.00000000 15.82600000 56.97360000
238   1  1.58260000 17.40860000 58.55620000
239   1  0.00000000 15.82600000 60.13880000
240   1  1.58260000 17.40860000 61.72140000
241   1  0.00000000 18.99120000 0.00000000
242   1  1.58260000 20.57380000 1.58260000
243   1  0.00000000 18.99120000 3.16520000
244   1  1.58260000 20.57380000 4.74780000
245   1  0.00000000 18.99120000 6.33040000
246   1  1.58260000 20.57380000 7.91300000
247   1  0.00000000 18.99120000 9.49560000
248   1  1.58260000 20.57380000 11.07820000
249   1  0.00000000 18.99120000 12.66080000
250   1  1.58260000 20.57380000 14.24340000
251   1  0.00000000 18.99120000 15.82600000
252   1  1.58260000 20.57380000 17.40860000
253   1  0.00000000 18.99120000 18.99120000
254   1  1.58260000 20.57380000 20.57380000
255   1  0.00000000 18.99120000 22.15640000
256   1  1.58260000 20.57380000 23.73900000
257   1  0.00000000 18.99120000 25.32160000
258   1  1.58260000 20.57380000 26.90420000
259   1  0.00000000 18.99120000 28.48680000
260   1  1.58260000 20.57380000 30.06940000
261   1  0.00000000 18.99120000 31.65200000
262   1  1.58260000 20.57380000 33.23460000
263   1  0.00000000 18.99120000 34.81720000
264   1  1.58260000 20.57380000 36.39980000
265   1  0.00000000 18.99120000 37.98240000
266   1  1.58260000 20.57380000 39.56500000
267   1  0.00000000 18.99120000 41.14760000
268   1  1.58260000 20.57380000 42.73020000
269   1  0.00000000 18.99120000 44.31280000
270   1  1.58260000 20.57380000 45.89540000
271   1  0.00000000 18.99120000 47.47800000
272   1  1.58260000 20.57380000 49.06060000
273   1  0.00000000 18.99120000 50.64320000
274   1  1.58260000 20.57380000 52.22580000
275   1  0.00000000 18.99120000 53.80840000
276   1  1.58260000 20.57380000 55.39100000
277   1  0.00000000 18.99120000 56.97360000
278   1  1.58260000 20.57380000 58.55620000
279   1  0.00000000 18.99120000 60.13880000
280   1  1.58260000 20.57380000 61.72140000
281   1  0.00000000 22.15640000 0.00000000
282   1  1.58260000 23.73900000 1.58260000
283   1  0.00000000 22.15640000 3.16520000
284   1  1.58260000 23.73900000 4.74780000
285   1  0.00000000 22.15640000 6.33040000
286   1  1.58260000 23.73900000 7.91300000
287   1  0.00000000 22.15640000 9.49560000
288   1  1.58260000 23.73900000 11.07820000
289   1  0.00000000 22.15640000 12.66080000
290   1  1.58260000 23.73900000 14.24340000
291   1  0.00000000 22.15640000 15.82600000
292   1  1.58260000 23.73900000 17.40860000
293   1  0.00000000 22.15640000 18.99120000
294   1  1.58260000 23.73900000 20.57380000
295   1  0.00000000 22.15640000 22.15640000
296   1  1.58260000 23.73900000 23.73900000
297   1  0.00000000 22.15640000 25.32160000
298   1  1.58260000 23.73900000 26.90420000
299   1  0.00000000 22.15640000 28.48680000
300   1  1.58260000 23.73900000 30.06940000
301   1  0.00000000 22.15640000 31.65200000
302   1  1.58260000 23.73900000 33.23460000
303   1  0.00000000 22.15640000 34.81720000
304   1  1.58260000 23.73900000 36.39980000
305   1  0.00000000 22.15640000 37.98240000
306   1  1.58260000 23.73900000 39.56500000
307   1  0.00000000 22.15640000 41.14760000
308   1  1.58260000 23.73900000 42.73020000
309   1  0.00000000 22.15640000 44.31280000
310   1  1.58260000 23.73900000 45.89540000
311   1  0.00000000 22.15640000 47.47800000
312   1  1.58260000 23.73900000 49.06060000
313   1  0.00000000 22.15640000 50.64320000
314   1  1.58260000 23.73900000 52.22580000
315   1  0.00000000 22.15640000 53.80840000
316   1  1.58260000 23.73900000 55.39100000
317   1  0.00000000 22.15640000 56.97360000
318   1  1.58260000 23.73900000 58.55620000
319   1  0.00000000 22.15640000 60.13880000
320   1  1.58260000 23.73900000 61.72140000
321   1  0.00000000 25.32160000 0.00000000
322   1  1.58260000 26.90420000 1.58260000
323   1  0.00000000 25.32160000 3.16520000
324   1  1.58260000 26.90420000 4.74780000
325   1  0.00000000 25.32160000 6.33040000
326   1  1.58260000 26.90420000 7.91300000
327   1  0.00000000 25.32160000 9.49560000
328   1  1.58260000 26.90420000 11.07820000
329   1  0.00000000 25.32160000 12.66080000
330   1  1.58260000 26.90420000 14.24340000
331   1  0.00000000 25.32160000 15.82600000
332   1  1.58260000 26.90420000 17.40860000
333   1  0.00000000 25.32160000 18.99120000
334   1  1.58260000 26.90420000 20.57380000
335   1  0.00000000 25.32160000 22.15640000
336   1  1.58260000 26.90420000 23.73900000
337   1  0.00000000 25.32160000 25.32160000
338   1  1.58260000 26.90420000 26.90420000
339   1  0.00000000 25.32160000 28.48680000
340   1  1.58260000 26.90420000 30.06940000
341   1  0.00000000 25.32160000 31.65200000
342   1  1.58260000 26.90420000 33.23460000
343   1  0.00000000 25.32160000 34.81720000
344   1  1.58260000 26.90420000 36.39980000
345   1  0.00000000 25.32160000 37.98240000
346   1  1.58260000 26.90420000 39.56500000
347   1  0.00000000 25.32160000 41.14760000
348   1  1.58260000 26.90420000 42.73020000
349   1  0.00000000 25.32160000 44.31280000
350   1  1.58260000 26.90420000 45.89540000
351   1  0.00000000 25.32160000 47.47800000
352   1  1.58260000 26.90420000 49.06060000
353   1  0.00000000 25.32160000 50.64320000
354   1  1.58260000 26.90420000 52.22580000
355   1  0.00000000 25.32160000 53.80840000
356   1  1.58260000 26.90420000 55.39100000
357   1  0.00000000 25.32160000 56.97360000
358   1  1.58260000 26.90420000 58.55620000
359   1  0.00000000 25.32160000 60.13880000
360   1  1.58260000 26.90420000 61.72140000
361   1  0.00000000 28.48680000 0.00000000
362   1  1.58260000 30.06940000 1.58260000
363   1  0.00000000 28.48680000 3.16520000
364   1  1.58260000 30.06940000 4.74780000
365   1  0.00000000 28.48680000 6.33040000
366   1  1.58260000 30.06940000 7.91300000
367   1  0.00000000 28.48680000 9.49560000
368   1  1.58260000 30.06940000 11.07820000
369   1  0.00000000 28.48680000 12.66080000
370   1  1.58260000 30.06940000 14.24340000
371   1  0.00000000 28.48680000 15.82600000
372   1  1.58260000 30.06940000 17.40860000
373   1  0.00000000 28.48680000 18.99120000
374   1  1.58260000 30.06940000 20.57380000
375   1  0.00000000 28.48680000 22.15640000
376   1  1.58260000 30.06940000 23.73900000
377   1  0.00000000 28.48680000 25.32160000
378   1  1.58260000 30.06940000 26.90420000
379   1  0.00000000 28.48680000 28.48680000
380   1  1.58260000 30.06940000 30.06940000
381   1  0.00000000 28.48680000 31.65200000
382   1  1.58260000 30.06940000 33.23460000
383   1  0.00000000 28.48680000 34.81720000
384   1  1.58260000 30.06940000 36.39980000
385   1  0.00000000 28.48680000 37.98240000
386   1  1.58260000 30.06940000 39.56500000
387   1  0.00000000 28.48680000 41.14760000
388   1  1.58260000 30.06940000 42.73020000
389   1  0.00000000 28.48680000 44.31280000
390   1  1.58260000 30.06940000 45.89540000
391   1  0.00000000 28.48680000 47.47800000
392   1  1.58260000 30.06940000 49.06060000
393   1  0.00000000 28.48680000 50.64320000
394   1  1.58260000 30.06940000 52.22580000
395   1  0.00000000 28.48680000 53.80840000
396   1  1.58260000 30.06940000 55.39100000
397   1  0.00000000 28.48680000 56.97360000
398   1  1.58260000 30.06940000 58.55620000
399   1  0.00000000 28.48680000 60.13880000
400   1  1.58260000 30.06940000 61.72140000
401   1  0.00000000 31.65200000 0.00000000
402   1  1.58260000 33.23460000 1.58260000
403   1  0.00000000 31.65200000 3.16520000
404   1  1.58260000 33.23460000 4.74780000
405   1  0.00000000 31.65200000 6.33040000
406   1  1.58260000 33.23460000 7.91300000
407   1  0.00000000 31.65200000 9.49560000
408   1  1.58260000 33.23460000 11.07820000
409   1  0.00000000 31.65200000 12.66080000
410   1  1.58260000 33.23460000 14.24340000
411   1  0.00000000 31.65200000 15.82600000
412   1  1.58260000 33.23460000 17.40860000
413   1  0.00000000 31.65200000 18.99120000
414   1  1.58260000 33.23460000 20.57380000
415   1  0.00000000 31.65200000 22.15640000
416   1  1.58260000 33.23460000 23.73900000
417   1  0.00000000 31.65200000 25.32160000
418   1  1.58260000 33.23460000 26.90420000
419   1  0.00000000 31.65200000 28.48680000
420   1  1.58260000 33.23460000 30.06940000
421   1  0.00000000 31.65200000 31.65200000
422   1  1.58260000 33.23460000 33.23460000
423   1  0.00000000 31.65200000 34.81720000
424   1  1.58260000 33.23460000 36.39980000
425   1  0.00000000 31.65200000 37.98240000
426   1  1.58260000 33.23460000 39.56500000
427   1  0.00000000 31.65200000 41.14760000
428   1  1.58260000 33.23460000 42.73020000
429   1  0.00000000 31.65200000 44.31280000
430   1  1.58260000 33.23460000 45.89540000
431   1  0.00000000 31.65200000 47.47800000
432   1  1.58260000 33.23460000 49.06060000
433   1  0.00000000 31.65200000 50.64320000
434   1  1.58260000 33.23460000 52.22580000
435   1  0.00000000 31.65200000 53.80840000
436   1  1.58260000 33.23460000 55.39100000
437   1  0.00000000 31.65200000 56.97360000
438   1  1.58260000 33.23460000 58.55620000
439   1  0.00000000 31.65200000 60.13880000
440   1  1.58260000 33.23460000 61.72140000
441   1  0.00000000 34.81720000 0.00000000
442   1  1.58260000 36.39980000 1.58260000
443   1  0.00000000 34.81720000 3.16520000
444   1  1.58260000 36.39980000 4.74780000
445   1  0.00000000 34.81720000 6.33040000
446   1  1.58260000 36.39980000 7.91300000
447   1  0.00000000 34.81720000 9.49560000
448   1  1.58260000 36.39980000 11.07820000
449   1  0.00000000 34.81720000 12.66080000
450   1  1.58260000 36.39980000 14.24340000
451   1  0.00000000 34.81720000 15.82600000
452   1  1.58260000 36.39980000 17.40860000
453   1  0.00000000 34.81720000 18.99120000
454   1  1.58260000 36.39980000 20.57380000
455   1  0.00000000 34.81720000 22.15640000
456   1  1.58260000 36.39980000 23.73900000
457   1  0.00000000 34.81720000 25.32160000
458   1  1.58260000 36.39980000 26.90420000
459   1  0.00000000 34.81720000 28.48680000
460   1  1.58260000 36.39980000 30.06940000
461   1  0.00000000 34.81720000 31.65200000
462   1  1.58260000 36.39980000 33.23460000
463   1  0.00000000 34.81720000 34.81720000
464   1  1.58260000 36.39980000 36.39980000
465   1  0.00000000 34.81720000 37.98240000
466   1  1.58260000 36.39980000 39.56500000
467   1  0.00000000 34.81720000 41.14760000
468   1  1.58260000 36.39980000 42.73020000
469   1  0.00000000 34.81720000 44.31280000
470   1  1.58260000 36.39980000 45.89540000
471   1  0.00000000 34.81720000 47.47800000
472   1  1.58260000 36.39980000 49.06060000
473   1  0.00000000 34.81720000 50.64320000
474   1  1.58260000 36.39980000 52.22580000
475   1  0.00000000 34.81720000 53.80840000
476   1  1.58260000 36.39980000 55.39100000
477   1  0.00000000 34.81720000 56.97360000
478   1  1.58260000 36.39980000 58.55620000
479   1  0.00000000 34.81720000 60.13880000
480   1  1.58260000 36.39980000 61.72140000
481   1  0.00000000 37.98240000 0.00000000
482   1  1.58260000 39.56500000 1.58260000
483   1  0.00000000 37.98240000 3.16520000
484   1  1.58260000 39.56500000 4.74780000
485   1  0.00000000 37.98240000 6.33040000
486   1  1.58260000 39.56500000 7.91300000
487   1  0.00000000 37.98240000 9.49560000
488   1  1.58260000 39.56500000 11.07820000
489   1  0.00000000 37.98240000 12.66080000
490   1  1.58260000 39.56500000 14.24340000
491   1  0.00000000 37.98240000 15.82600000
492   1  1.58260000 39.56500000 17.40860000
493   1  0.00000000 37.98240000 18.99120000
494   1  1.58260000 39.56500000 20.57380000
495   1  0.00000000 37.98240000 22.15640000
496   1  1.58260000 39.56500000 23.73900000
497   1  0.00000000 37.98240000 25.32160000
498   1  1.58260000 39.56500000 26.90420000
499   1  0.00000000 37.98240000 28.48680000
500   1  1.58260000 39.56500000 30.06940000
501   1  0.00000000 37.98240000 31.65200000
502   1  1.58260000 39.56500000 33.23460000
503   1  0.00000000 37.98240000 34.81720000
504   1  1.58260000 39.56500000 36.39980000
505   1  0.00000000 37.98240000 37.98240000
506   1  1.58260000 39.56500000 39.56500000
507   1  0.00000000 37.98240000 41.14760000
508   1  1.58260000 39.56500000 42.73020000
509   1  0.00000000 37.98240000 44.31280000
510   1  1.58260000 39.56500000 45.89540000
511   1  0.00000000 37.98240000 47.47800000
512   1  1.58260000 39.56500000 49.06060000
513   1  0.00000000 37.98240000 50.64320000
514   1  1.58260000 39.56500000 52.22580000
515   1  0.00000000 37.98240000 53.80840000
516   1  1.58260000 39.56500000 55.39100000
517   1  0.00000000 37.98240000 56.97360000
518   1  1.58260000 39.56500000 58.55620000
519   1  0.00000000 37.98240000 60.13880000
520   1  1.58260000 39.56500000 61.72140000
521   1  0.00000000 41.14760000 0.00000000
522   1  1.58260000 42.73020000 1.58260000
523   1  0.00000000 41.14760000 3.16520000
524   1  1.58260000 42.73020000 4.74780000
525   1  0.00000000 41.14760000 6.33040000
526   1  1.58260000 42.73020000 7.91300000
527   1  0.00000000 41.14760000 9.49560000
528   1  1.58260000 42.73020000 11.07820000
529   1  0.00000000 41.14760000 12.66080000
530   1  1.58260000 42.73020000 14.24340000
531   1  0.00000000 41.14760000 15.82600000
532   1  1.58260000 42.73020000 17.40860000
533   1  0.00000000 41.14760000 18.99120000
534   1  1.58260000 42.73020000 20.57380000
535   1  0.00000000 41.14760000 22.15640000
536   1  1.58260000 42.73020000 23.73900000
537   1  0.00000000 41.14760000 25.32160000
538   1  1.58260000 42.73020000 26.90420000
539   1  0.00000000 41.14760000 28.48680000
540   1  1.58260000 42.73020000 30.06940000
541   1  0.00000000 41.14760000 31.65200000
542   1  1.58260000 42.73020000 33.23460000
543   1  0.00000000 41.14760000 34.81720000
544   1  1.58260000 42.73020000 36.39980000
545   1  0.00000000 41.14760000 37.98240000
546   1  1.58260000 42.73020000 39.56500000
547   1  0.00000000 41.14760000 41.14760000
548   1  1.58260000 42.73020000 42.73020000
549   1  0.00000000 41.14760000 44.31280000
550   1  1.58260000 42.73020000 45.89540000
551   1  0.00000000 41.14760000 47.47800000
552   1  1.58260000 42.73020000 49.06060000
553   1  0.00000000 41.14760000 50.64320000
554   1  1.58260000 42.73020000 52.22580000
555   1  0.00000000 41.14760000 53.80840000
556   1  1.58260000 42.73020000 55.39100000
557   1  0.00000000 41.14760000 56.97360000
558   1  1.58260000 42.73020000 58.55620000
559   1  0.00000000 41.14760000 60.13880000
560   1  1.58260000 42.73020000 61.72140000
561   1  0.00000000 44.31280000 0.00000000
562   1  1.58260000 45.89540000 1.58260000
563   1  0.00000000 44.31280000 3.16520000
564   1  1.58260000 45.89540000 4.74780000
565   1  0.00000000 44.31280000 6.33040000
566   1  1.58260000 45.89540000 7.91300000
567   1  0.00000000 44.31280000 9.49560000
568   1  1.58260000 45.89540000 11.07820000
569   1  0.00000000 44.31280000 12.66080000
570   1  1.58260000 45.89540000 14.24340000
571   1  0.00000000 44.31280000 15.82600000
572   1  1.58260000 45.89540000 17.40860000
573   1  0.00000000 44.31280000 18.99120000
574   1  1.58260000 45.89540000 20.57380000
575   1  0.00000000 44.31280000 22.15640000
576   1  1.58260000 45.89540000 23.73900000
577   1  0.00000000 44.31280000 25.32160000
578   1  1.58260000 45.89540000 26.90420000
579   1  0.00000000 44.31280000 28.48680000
580   1  1.58260000 45.89540000 30.06940000
581   1  0.00000000 44.31280000 31.65200000
582   1  1.58260000 45.89540000 33.23460000
583   1  0.00000000 44.31280000 34.81720000
584   1  1.58260000 45.89540000 36.39980000
585   1  0.00000000 44.31280000 37.98240000
586   1  1.58260000 45.89540000 39.56500000
587   1  0.00000000 44.31280000 41.14760000
588   1  1.58260000 45.89540000 42.73020000
589   1  0.00000000 44.31280000 44.31280000
590   1  1.58260000 45.89540000 45.89540000
591   1  0.00000000 44.31280000 47.47800000
592   1  1.58260000 45.89540000 49.06060000
593   1  0.00000000 44.31280000 50.64320000
594   1  1.58260000 45.89540000 52.22580000
595   1  0.00000000 44.31280000 53.80840000
596   1  1.58260000 45.89540000 55.39100000
597   1  0.00000000 44.31280000 56.97360000
598   1  1.58260000 45.89540000 58.55620000
599   1  0.00000000 44.31280000 60.13880000
600   1  1.58260000 45.89540000 61.72140000
601   1  0.00000000 47.47800000 0.00000000
602   1  1.58260000 49.06060000 1.58260000
603   1  0.00000000 47.47800000 3.16520000
604   1  1.58260000 49.06060000 4.74780000
605   1  0.00000000 47.47800000 6.33040000
606   1  1.58260000 49.06060000 7.91300000
607   1  0.00000000 47.47800000 9.49560000
608   1  1.58260000 49.06060000 11.07820000
609   1  0.00000000 47.47800000 12.66080000
610   1  1.58260000 49.06060000 14.24340000
611   1  0.00000000 47.47800000 15.82600000
612   1  1.58260000 49.06060000 17.40860000
613   1  0.00000000 47.47800000 18.99120000
614   1  1.58260000 49.06060000 20.57380000
615   1  0.00000000 47.47800000 22.15640000
616   1  1.58260000 49.06060000 23.73900000
617   1  0.00000000 47.47800000 25.32160000
618   1  1.58260000 49.06060000 26.90420000
619   1  0.00000000 47.47800000 28.48680000
620   1  1.58260000 49.06060000 30.06940000
621   1  0.00000000 47.47800000 31.65200000
622   1  1.58260000 49.06060000 33.23460000
623   1  0.00000000 47.47800000 34.81720000
624   1  1.58260000 49.06060000 36.39980000
625   1  0.00000000 47.47800000 37.98240000
626   1  1.58260000 49.06060000 39.56500000
627   1  0.00000000 47.47800000 41.14760000
628   1  1.58260000 49.06060000 42.73020000
629   1  0.00000000 47.47800000 44.31280000
630   1  1.58260000 49.06060000 45.89540000
631   1  0.00000000 47.47800000 47.47800000
632   1  1.58260000 49.06060000 49.06060000
633   1  0.00000000 47.47800000 50.64320000
634   1  1.58260000 49.06060000 52.22580000
635   1  0.00000000 47.47800000 53.80840000
636   1  1.58260000 49.06060000 55.39100000
637   1  0.00000000 47.47800000 56.97360000
638   1  1.58260000 49.06060000 58.55620000
639   1  0.00000000 47.47800000 60.13880000
640   1  1.58260000 49.06060000 61.72140000
641   1  0.00000000 50.64320000 0.00000000
642   1  1.58260000 52.22580000 1.58260000
643   1  0.00000000 50.64320000 3.16520000
644   1  1.58260000 52.22580000 4.74780000
645   1  0.00000000 50.64320000 6.33040000
646   1  1.58260000 52.22580000 7.91300000
647   1  0.00000000 50.64320000 9.49560000
648   1  1.58260000 52.22580000 11.07820000
649   1  0.00000000 50.64320000 12.66080000
650   1  1.58260000 52.22580000 14.24340000
651   1  0.00000000 50.64320000 15.82600000
652   1  1.58260000 52.22580000 17.40860000
653   1  0.00000000 50.64320000 18.99120000
654   1  1.58260000 52.22580000 20.57380000
655   1  0.00000000 50.64320000 22.15640000
656   1  1.58260000 52.22580000 23.73900000
657   1  0.00000000 50.64320000 25.32160000
658   1  1.58260000 52.22580000 26.90420000
659   1  0.00000000 50.64320000 28.48680000
660   1  1.58260000 52.22580000 30.06940000
661   1  0.00000000 50.64320000 31.65200000
662   1  1.58260000 52.22580000 33.23460000
663   1  0.00000000 50.64320000 34.81720000
664   1  1.58260000 52.22580000 36.39980000
665   1  0.00000000 50.64320000 37.98240000
666   1  1.58260000 52.22580000 39.56500000
667   1  0.00000000 50.64320000 41.14760000
668   1  1.58260000 52.22580000 42.73020000
669   1  0.00000000 50.64320000 44.31280000
670   1  1.58260000 52.22580000 45.89540000
671   1  0.00000000 50.64320000 47.47800000
672   1  1.58260000 52.22580000 49.06060000
673   1  0.00000000 50.64320000 50.64320000
674   1  1.58260000 52.22580000 52.22580000
675   1  0.00000000 50.64320000 53.80840000
676   1  1.58260000 52.22580000 55.39100000
677   1  0.00000000 50.64320000 56.97360000
678   1  1.58260000 52.22580000 58.55620000
679   1  0.00000000 50.64320000 60.13880000
680   1  1.58260000 52.22580000 61.72140000
681   1  0.00000000 53.80840000 0.00000000
682   1  1.58260000 55.39100000 1.58260000
683   1  0.00000000 53.80840000 3.16520000
684   1  1.58260000 55.39100000 4.74780000
685   1  0.00000000 53.80840000 6.33040000
686   1  1.58260000 55.39100000 7.91300000
687   1  0.00000000 53.80840000 9.49560000