LAMMPS (7 Aug 2019)
OMP_NUM_THREADS environment is not set. Defaulting to 1 thread. (../comm.cpp:93)
  using 1 OpenMP thread(s) per MPI task
Reading data file ...
  orthogonal box = (0 0 0) to (17.1147 17.1318 17.1318)
  1 by 1 by 2 MPI processor grid
  reading atoms ...
  432 atoms
  read_data CPU = 0.000602961 secs
432 atoms in group iron
432 atoms in group Fe
Neighbor list info ...
  update every 1 steps, delay 10 steps, check yes
  max neighbors/atom: 2000, page size: 100000
  master list distance cutoff = 7.3
  ghost atom cutoff = 7.3
  binsize = 3.65, bins = 5 5 5
  1 neighbor lists, perpetual/occasional/extra = 1 0 0
  (1) pair eam/fs, perpetual
      attributes: half, newton on
      pair build: half/bin/atomonly/newton
      stencil: half/bin/3d/newton
      bin: standard
Setting up Verlet run ...
  Unit style    : metal
  Current step  : 0
  Time step     : 0.002
Per MPI rank memory allocation (min/avg/max) = 4.309 | 4.309 | 4.309 Mbytes
Step Temp PotEng TotEng Press Volume 
       0          300   -1733.6045   -1716.8911    5357.1375    5023.1307 
     100    138.67871   -1724.0447   -1716.3187    -650.4354    5038.7623 
     200    137.46402   -1723.1461   -1715.4878   -1947.8815    5044.3564 
     300    164.99688   -1723.6186   -1714.4264   -1450.9044    5043.7893 
     400     195.4244    -1724.115   -1713.2276    -857.7585    5041.0328 
     500    188.87469   -1722.4225   -1711.9001    4206.9345    5031.5281 
     600    200.27999   -1721.6537   -1710.4959    1240.6216    5038.0194 
     700    212.62717    -1720.829   -1708.9833   -5195.0543    5057.1438 
     800    219.19011   -1719.6581   -1707.4467   -4343.7491    5059.8647 
     900    236.37823   -1719.0448   -1705.8759    3094.3703    5040.7502 
    1000    237.66849   -1717.4743   -1704.2335     7245.289    5026.9792 
    1100    273.01587   -1717.9831   -1702.7731    4876.0487    5035.0449 
    1200    300.69496   -1718.0232   -1701.2712   -5447.3329    5066.7909 
    1300    267.58317   -1714.7517   -1699.8444   -10531.424    5088.4054 
    1400    307.05528   -1715.8582   -1698.7518   -4103.1963    5068.0758 
    1500    322.68041    -1715.737   -1697.7601    9051.7969    5032.3691 
    1600    273.74899   -1712.3492   -1697.0983    5667.0334    5037.5947 
    1700    357.15707   -1716.7028   -1696.8052    492.10808    5053.0547 
    1800      329.005   -1715.2205   -1696.8913   -3263.2333    5067.8625 
    1900    327.60677   -1715.6122   -1697.3608   -5184.0099    5072.2104 
    2000    322.73421   -1716.1013   -1698.1215   -558.84024    5058.6186 
    2100    284.91156   -1714.8346   -1698.9619    2817.4496    5047.8182 
    2200    330.72532   -1718.1806   -1699.7555    618.86968    5052.6607 
    2300    304.07631   -1717.3383   -1700.3978   -2049.0461    5059.6328 
    2400    271.04777   -1715.9631   -1700.8627   -883.28513    5057.1832 
    2500    258.58107   -1715.5011   -1701.0952    69.173633     5054.791 
    2600    264.93973   -1715.8113   -1701.0513    2807.9451    5046.7477 
    2700    321.96617   -1718.6911    -1700.754    3880.2653    5042.1816 
    2800     297.4985   -1716.8317   -1700.2578   -1850.5387    5057.9526 
    2900    285.50309   -1715.5212   -1699.6155   -3953.1119    5065.7832 
    3000    310.38257   -1716.2602   -1698.9684   -859.28903    5060.1927 
    3100    305.55028   -1715.4196   -1698.3971     33.29502    5055.4045 
    3200    313.04862      -1715.4   -1697.9597    4354.6076    5042.7753 
    3300    315.20012   -1715.3221    -1697.762    3568.9648    5043.6037 
    3400    318.97852   -1715.5376    -1697.767   -3027.1198      5065.21 
    3500    308.08226   -1715.1819   -1698.0183   -6176.4893    5075.4983 
    3600    313.22683    -1715.939   -1698.4888   -1596.8457    5061.1991 
    3700    295.11671   -1715.4806   -1699.0393    5946.6604    5036.7259 
    3800    282.03182    -1715.297   -1699.5847    6592.0941    5028.8514 
    3900    298.53841   -1716.7377   -1700.1058    1690.8776    5049.4206 
    4000    273.26317   -1715.6249   -1700.4011   -7845.4076    5080.1275 
    4100    300.41768   -1717.2847   -1700.5481   -8468.5975    5080.0862 
    4200    292.94787    -1716.908   -1700.5875    764.97075    5050.5031 
    4300    288.30038   -1716.3454   -1700.2839    8764.9703     5024.444 
    4400    295.44753   -1716.3525   -1699.8928    10784.758    5022.0855 
    4500    300.34471   -1716.2593   -1699.5267    166.41157     5057.339 
    4600     295.1335   -1715.4078   -1698.9656   -10186.124    5086.6335 
    4700    297.14053   -1715.0909   -1698.5369   -4895.8172    5070.1513 
    4800    329.89435   -1716.5923   -1698.2136    1105.7397    5051.6156 
    4900    330.41358   -1716.4317    -1698.024    2651.4611    5048.3219 
    5000    295.98677   -1714.5435   -1698.0537    1105.0865    5051.8763 
    5100    295.25959   -1714.7464   -1698.2972    1155.9996    5053.0029 
    5200     304.7536   -1715.6735   -1698.6954   -2803.9924    5064.6298 
    5300    314.49545   -1716.7039    -1699.183   -4002.7706    5066.5052 
    5400    310.57793   -1716.9507   -1699.6481    771.03786    5052.3977 
    5500     271.4466   -1715.1547   -1700.0321    3118.7286    5044.0973 
    5600    294.99891   -1716.7293   -1700.2946    3094.0436    5043.5777 
    5700    284.47156   -1716.2648   -1700.4166   -168.37357    5053.3451 
    5800    297.22696   -1716.9326   -1700.3738   -5101.6985    5068.5121 
    5900    299.50296   -1716.8431   -1700.1574   -2926.5515    5063.4864 
    6000    272.77922   -1714.9468   -1699.7499    996.67437    5050.7702 
    6100    297.30193   -1715.7725   -1699.2095    4166.0907    5042.0193 
    6200    318.07817   -1716.4432   -1698.7227    1265.9114    5048.4124 
    6300    314.10368   -1715.9043   -1698.4053    -129.1509     5056.348 
    6400    300.57079    -1714.983   -1698.2379   -2349.5477    5063.5619 
    6500     287.7572   -1714.2994   -1698.2681    -3656.738    5065.8936 
    6600    327.81688    -1716.711   -1698.4479    1626.7385    5050.0665 
    6700    311.52121   -1716.2133   -1698.8581    3782.7396    5041.5245 
    6800    305.54694   -1716.6865   -1699.6641    3377.9579    5041.1709 
    6900    284.05515   -1716.3347   -1700.5097   -1560.3779    5058.2066 
    7000    285.52946   -1716.6856   -1700.7784   -9255.8778    5081.9759 
    7100    288.26823   -1716.8906   -1700.8308    -5015.588    5068.9334 
    7200    286.44727   -1716.5891   -1700.6308    4961.7346    5036.2368 
    7300    288.57108   -1716.3522   -1700.2755    9977.3281    5021.4322 
    7400    294.54911   -1716.3787    -1699.969    3435.8183    5042.6635 
    7500    288.82153    -1715.601   -1699.5104   -6761.1396    5075.5764 
    7600     301.7056   -1715.9344    -1699.126   -7328.0472    5078.4963 
    7700    300.80452   -1715.6354   -1698.8772    -1296.533    5057.4435 
    7800    312.62563   -1716.1178    -1698.701    5148.2594    5038.1818 
    7900    291.32386   -1714.8527   -1698.6227    4662.5926    5040.3257 
    8000    304.71708   -1715.6576   -1698.6815   -152.37916    5054.4843 
    8100    316.15803   -1716.4474   -1698.8339   -2260.8816     5063.642 
    8200    289.81865   -1715.3871    -1699.241   -4122.0858    5066.3709 
    8300    295.24101   -1716.5879   -1700.1396   -613.77164    5053.9351 
    8400    298.23861    -1717.582   -1700.9668    3273.5038    5041.8354 
    8500    269.39002   -1716.2749   -1701.2668    3860.7338    5040.6816 
    8600    281.61372   -1716.9295   -1701.2405   -126.51469    5051.6845 
    8700    265.42094   -1715.7209    -1700.934   -3502.2559    5063.7271 
    8800     290.8201   -1716.6711   -1700.4691   -3754.0069    5065.6993 
    8900    301.46037   -1716.7607    -1699.966    791.59237    5052.1171 
    9000    285.23038   -1715.4049   -1699.5144     4910.365    5039.1846 
    9100    310.54711   -1716.5372   -1699.2362    4566.1175    5039.1603 
    9200    298.27334    -1715.673   -1699.0558   -507.18775    5054.8073 
    9300    306.45632   -1715.9962   -1698.9231   -3680.4523    5067.4396 
    9400    294.92992   -1715.2998   -1698.8689   -4462.5229    5068.5958 
    9500    305.42373   -1715.9161   -1698.9006   -577.10611    5057.3168 
    9600    304.61707   -1715.9652   -1698.9946    3193.7803    5044.4536 
    9700    306.88928   -1716.3141    -1699.217    3762.8358    5042.5127 
    9800    298.63778   -1716.3743   -1699.7368    811.98275    5051.8714 
    9900    290.36389     -1716.65   -1700.4735   -2953.3362    5063.5042 
   10000    285.11842   -1716.9094   -1701.0252   -4057.0727    5065.1997 
Loop time of 4.81926 on 2 procs for 10000 steps with 432 atoms

Performance: 358.561 ns/day, 0.067 hours/ns, 2075.006 timesteps/s
99.6% CPU use with 2 MPI tasks x 1 OpenMP threads

MPI task timing breakdown:
Section |  min time  |  avg time  |  max time  |%varavg| %total
---------------------------------------------------------------
Pair    | 4.2518     | 4.258      | 4.2643     |   0.3 | 88.35
Neigh   | 0.00043821 | 0.00044811 | 0.000458   |   0.0 |  0.01
Comm    | 0.34526    | 0.35367    | 0.36209    |   1.4 |  7.34
Output  | 0.029527   | 0.029726   | 0.029925   |   0.1 |  0.62
Modify  | 0.13821    | 0.13986    | 0.14151    |   0.4 |  2.90
Other   |            | 0.03753    |            |       |  0.78

Nlocal:    216 ave 220 max 212 min
Histogram: 1 0 0 0 0 0 0 0 0 1
Nghost:    2039 ave 2040 max 2038 min
Histogram: 1 0 0 0 0 0 0 0 0 1
Neighs:    14949 ave 15244 max 14654 min
Histogram: 1 0 0 0 0 0 0 0 0 1

Total # of neighbors = 29898
Ave neighs/atom = 69.2083
Neighbor list builds = 1
Dangerous builds = 0
Setting up Verlet run ...
  Unit style    : metal
  Current step  : 10000
  Time step     : 0.002
Per MPI rank memory allocation (min/avg/max) = 4.309 | 4.309 | 4.309 Mbytes
Step Temp PotEng TotEng Press Volume v_my_lx f_1 f_2 f_3 f_4 f_5 
   10000    285.11842   -1716.9094   -1701.0252   -4057.0727    5065.1997    2.8603857            0            0            0            0            0 
   10100    272.46808   -1716.4537   -1701.2742    619.05709    5050.1001    2.8575406    5054.2576     283.3285   -574.65688   -1701.1692    2.8583227 
   10200    280.31244    -1716.758   -1701.1415    6336.6468    5032.8482    2.8542829    5052.1597    283.73901    69.551368   -1701.2001    2.8579267 
   10300    302.93759   -1717.6876   -1700.8106    5131.7964    5038.0033    2.8552571    5051.0526    284.41764    370.34398    -1701.134    2.8577177 
   10400     278.4274   -1715.7955    -1700.284   -2573.9809    5061.0576    2.8596058    5051.3152    285.33191    353.20394   -1700.9867    2.8577669 
   10500    302.66449     -1716.54   -1699.6782   -8324.9803    5079.1982    2.8630183    5052.3492    287.15213    121.11503   -1700.7816    2.8579616 
   10600    290.55958   -1715.5658   -1699.3784   -5789.7906    5073.6385    2.8619733    5053.2591      289.006   -99.400915   -1700.5705    2.8581327 
   10700    303.73908   -1716.1346    -1699.213    2086.3411    5047.1652    2.8569869    5053.4274    290.40955   -93.029053   -1700.3856    2.8581643 
   10800    308.90982   -1716.2742   -1699.0645    9399.8355    5026.0229    2.8529921    5053.1286    291.61444    39.669478   -1700.2305    2.8581079 
   10900    307.14457    -1716.175   -1699.0636    3896.9007    5039.0389    2.8554528    5052.9707    292.81839    136.71968   -1700.1024     2.858078 
   11000     304.6315   -1716.0261   -1699.0547    -2149.384    5061.3475    2.8596604    5053.1736    293.83523    117.11445   -1699.9969    2.8581164 
   11100    289.50024   -1715.1786   -1699.0503   -5064.5231     5071.836    2.8616344    5053.4891    294.50571    31.704669   -1699.9108     2.858176 
   11200    298.78676   -1715.7844   -1699.1386   -2116.1008     5060.789    2.8595552    5053.6529    295.12939   -5.9675631   -1699.8429    2.8582071 
   11300     315.2473   -1716.8514   -1699.2886    1676.3185    5046.6058    2.8568813    5053.6613    295.56535   0.90223004   -1699.7937    2.8582089 
   11400    307.70888   -1716.6987   -1699.5559    2429.3204    5042.9655    2.8561942    5053.5871    295.81952    29.440247   -1699.7664     2.858195 
   11500    292.57932   -1716.2814   -1699.9814    959.77774    5051.8255     2.857866    5053.5319    295.83987    44.600444   -1699.7661    2.8581848 
   11600    282.89074   -1716.2148   -1700.4547   -2349.5498    5059.7713    2.8593635    5053.5181    295.59323    28.106689   -1699.7948    2.8581824 
   11700    281.04244    -1716.488   -1700.8308   -750.66785    5055.8569     2.858626    5053.4423    295.17081    23.522212   -1699.8456    2.8581682 
   11800    282.13506   -1716.7328   -1701.0148    241.57343    5049.5686    2.8574403    5053.4277    294.63216    8.3392361   -1699.9064    2.8581656 
   11900    286.07362    -1716.895   -1700.9575    742.12254    5047.5533    2.8570601    5053.3592    294.17872    9.7604579   -1699.9644    2.8581528 
   12000    289.64104    -1716.717   -1700.5808    2237.4895    5047.8978    2.8571251    5053.2807    293.83156    21.701455   -1700.0063    2.8581381 
   12100    296.87719   -1716.3947   -1699.8553   -217.35813    5054.8003    2.8584268    5053.2045     293.7221    34.067204   -1700.0172    2.8581238 
   12200    297.16278     -1715.68   -1699.1247   -2237.4107    5059.9429    2.8593958    5053.2239    293.94505    27.229398   -1699.9919    2.8581276 
   12300    289.55355   -1714.8698   -1698.7384   -2049.6736    5060.5137    2.8595034    5053.3178    294.37279    6.5248461   -1699.9444    2.8581453 
   12400    305.43774   -1715.6217   -1698.6054    335.06319    5053.5467    2.8581905     5053.385    294.84118    -1.562452   -1699.8908    2.8581581 
   12500    311.08297   -1715.9311   -1698.6003    1987.2518    5048.2466    2.8571909    5053.3691    295.24148    7.0205751    -1699.839    2.8581551 
   12600    305.21365   -1715.7112   -1698.7074    2682.9697    5046.1562    2.8567965    5053.3356    295.58156    19.940706   -1699.7933    2.8581489 
   12700    312.17954   -1716.3232   -1698.9313   -1336.0175    5055.0287    2.8584698     5053.319    296.02538    31.203109   -1699.7568    2.8581458 
   12800     293.2737   -1715.5538   -1699.2152   -3241.7383    5062.0231    2.8597876    5053.3602    296.29159    11.856478   -1699.7319    2.8581536 
   12900    308.23857    -1716.773   -1699.6006   -2557.1466      5061.16    2.8596251    5053.3902    296.34277  -0.56998926   -1699.7206    2.8581593 
   13000    302.34342   -1716.8899    -1700.046    1245.0751    5048.0649    2.8571567    5053.3426    296.27637   0.61866028   -1699.7242    2.8581503 
   13100    291.08543   -1716.7178   -1700.5011    3522.7943     5039.593    2.8555574    5053.2428    296.13663      12.1698   -1699.7421    2.8581316 
   13200    288.02088   -1716.9772   -1700.9312    1306.1644    5047.7963     2.857106    5053.1464    295.94901    30.734141   -1699.7727    2.8581134 
   13300    281.15269   -1716.9013    -1701.238   -3981.3877    5064.3707    2.8602297    5053.1172    295.59323     17.90687   -1699.8126    2.8581079 
   13400    283.05043   -1717.2472   -1701.4781   -4860.0271    5066.1991    2.8605738    5053.0935    295.19058   -1.1430815   -1699.8586    2.8581034 
   13500    296.10907   -1718.0569   -1701.5603    1575.6991    5045.7907    2.8567275    5053.0483    294.75464   -8.4255203   -1699.9068    2.8580949 
   13600    295.02963   -1717.6772   -1701.2408    4933.3595    5034.2328    2.8545447    5052.9511    294.40094    7.4928679   -1699.9494    2.8580766 
   13700    285.38184   -1716.4339   -1700.5349    2621.1407    5043.4629    2.8562882    5052.8532    294.19614    23.092021   -1699.9754    2.8580581 
   13800    302.04316   -1716.5945   -1699.7674   -3058.7138     5061.389    2.8596682    5052.8316    294.15589    19.002799   -1699.9796     2.858054 
   13900    292.17113   -1715.4953   -1699.2181   -4794.3678    5069.1671    2.8611323    5052.8513    294.27959    9.7949023   -1699.9667    2.8580578 
   14000    310.49766   -1716.1804   -1698.8822   -1679.9591    5057.8343    2.8589986    5052.9136    294.45797   -8.9533185   -1699.9435    2.8580695 
   14100    304.51928   -1715.5979   -1698.6328    3829.1477    5041.3969    2.8558981    5052.9109    294.68525   -4.3891645   -1699.9142     2.858069 
   14200    316.42532   -1716.1186   -1698.4902    3550.8827    5042.1751     2.856045    5052.8734    295.02357    12.614571   -1699.8817    2.8580619 
   14300    314.81626   -1716.0382   -1698.4994    375.41152    5051.6301    2.8578291    5052.8686    295.27155    18.988703   -1699.8492    2.8580611 
   14400    300.62134   -1715.3762   -1698.6283   -816.10262    5058.3045    2.8590872    5052.9056    295.52697    13.918384   -1699.8196    2.8580681 
   14500    302.49263   -1715.7894   -1698.9372   -2862.7311     5062.466     2.859871    5052.9596    295.74466    5.3420035   -1699.7963    2.8580783 
   14600    284.21612   -1715.2743   -1699.4403   -1278.9357     5056.928    2.8588278    5053.0074    295.87033   -5.8314873   -1699.7827    2.8580873 
   14700    312.19201   -1717.3835   -1699.9909    3098.6297    5043.8397    2.8563593    5053.0037    295.87446   -2.7200002   -1699.7814    2.8580866 
   14800    293.31168   -1716.7832   -1700.4424    4678.7843    5038.5299    2.8553566    5052.9472    295.76877    12.077397   -1699.7909    2.8580759 
   14900    277.99113   -1716.2029   -1700.7157    836.36557    5048.3014    2.8572013    5052.8984     295.6464    20.726964   -1699.8073    2.8580667 
   15000    278.10655   -1716.2191   -1700.7254   -4379.5777     5065.157    2.8603777    5052.8934     295.4728     16.41462   -1699.8258    2.8580658 
   15100    286.19021   -1716.4573   -1700.5134   -6905.7985    5073.7953    2.8620028     5052.934    295.34765   -2.7307411   -1699.8419    2.8580734 
   15200    300.92954   -1716.8539   -1700.0888   -53.388844    5052.9091    2.8580703    5052.9485    295.24952   -15.026857   -1699.8512    2.8580761 
   15300    290.14767   -1715.3679   -1699.2034    7838.4194    5027.9819    2.8533627    5052.9105    295.27404   -2.8092503   -1699.8477    2.8580689 
   15400    303.08441   -1715.2769   -1698.3917     7444.343    5031.7813    2.8540812    5052.8452     295.4868    23.997874   -1699.8276    2.8580565 
   15500    298.78218   -1714.7748   -1698.1294    -1943.048    5060.8992     2.859576    5052.8509    295.72409     26.89385   -1699.7982    2.8580575 
   15600    309.83533   -1715.3505   -1698.0892   -9161.9898    5083.2129    2.8637725    5052.9309    295.96517    9.6579264   -1699.7678    2.8580725 
   15700    306.69195   -1715.3853   -1698.2991   -5126.0908    5069.6701     2.861227    5053.0051    296.21397   -7.2998955   -1699.7403    2.8580865 
   15800    296.89103    -1715.175   -1698.6349    3500.6909    5042.6341    2.8561317    5053.0281    296.38364   -10.663939   -1699.7181    2.8580908 
   15900    312.21132   -1716.3766    -1698.983    8095.6455    5029.2848    2.8536091    5052.9918    296.54407     7.588453   -1699.7026    2.8580839 
   16000    298.32975   -1716.0576   -1699.4373    3072.5245    5043.2787    2.8562534    5052.9616    296.58366    20.166781   -1699.6946    2.8580782 
   16100    294.10719     -1716.19    -1699.805   -3516.8398    5063.8363     2.860129    5052.9648    296.60309    16.765786   -1699.6934    2.8580788 
   16200    309.35152   -1717.3052   -1700.0709   -3981.7372    5064.9349    2.8603359     5052.978    296.55657    7.0128987   -1699.6976    2.8580813 
   16300    300.49051   -1717.0048   -1700.2641   -2630.3319    5057.9378    2.8590181    5052.9809    296.50057   -1.6877551   -1699.7052    2.8580818 
   16400    289.56898   -1716.4479   -1700.3157    2029.1681    5044.7132    2.8565242    5052.9555    296.44648  -0.93740132   -1699.7145    2.8580771 
   16500    301.35076   -1716.9783   -1700.1897     4036.913    5039.7139    2.8555803    5052.9089    296.35883    7.7951627    -1699.723    2.8580683 
   16600    316.00001   -1717.4104   -1699.8057    1186.9519    5047.6264    2.8570739    5052.8785    296.29889    15.278567   -1699.7277    2.8580626 
   16700    312.77198   -1716.4134   -1698.9885   -2580.8408    5060.1837    2.8594412    5052.8885    296.34407    10.509436   -1699.7229    2.8580645 
   16800     296.8115   -1714.7589   -1698.2232   -3147.0431    5063.7165    2.8601065    5052.9239    296.51092    3.7555375    -1699.706    2.8580712 
   16900    319.58226    -1715.677   -1697.8727   -322.00857    5055.5982    2.8585772    5052.9602    296.74917   -1.4352809   -1699.6814     2.858078 
   17000    313.89055   -1715.3139   -1697.8267    3834.3734     5042.892    2.8561804    5052.9689    296.96712  -0.40020422    -1699.655    2.8580797 
   17100    330.52161   -1716.4129   -1697.9992    4432.4592    5038.3037    2.8553139    5052.9548    297.15576    9.4123117   -1699.6303     2.858077 
   17200      307.014   -1715.4877   -1698.3836    510.72238    5050.6839    2.8576507    5052.9483     297.3488    15.254669   -1699.6102    2.8580758 
   17300    304.42081   -1715.8001   -1698.8405   -4106.6483    5067.4037    2.8608005    5052.9734    297.48868    10.699037   -1699.5964    2.8580806 
   17400    302.10704   -1716.1054   -1699.2746   -3667.5384    5066.9227      2.86071    5053.0027    297.54221   0.93971247   -1699.5893    2.8580861 
   17500    298.94376   -1716.2644   -1699.6099   -2103.7438    5056.4354     2.858735    5053.0072    297.55451    -3.456048   -1699.5875    2.8580869 
   17600    283.60034   -1715.5562   -1699.7565     4859.082    5035.9883    2.8548764    5052.9867    297.54526   0.61814572   -1699.5889    2.8580831 
   17700    313.84289   -1717.2808   -1699.7962    5126.0642    5035.4176    2.8547686    5052.9514     297.5312    9.8847992   -1699.5916    2.8580764 
   17800    302.69608   -1716.6529   -1699.7893   -864.08102    5054.6268    2.8583941    5052.9208    297.50959    15.783766   -1699.5942    2.8580706 
   17900    288.10441   -1715.7296    -1699.679   -5298.5354    5069.7692    2.8612456    5052.9306    297.47734    9.9110138    -1699.596    2.8580725 
   18000    288.16491   -1715.6157   -1699.5617   -5732.4289    5071.4762    2.8615667    5052.9575    297.47901    1.9199422   -1699.5964    2.8580775 
   18100    305.05758   -1716.4547   -1699.4596     -571.123    5055.5847    2.8585746    5052.9712    297.47943   -4.7288894   -1699.5954    2.8580801 
   18200    294.66165   -1715.7186   -1699.3027    3151.2946    5042.7873    2.8561606    5052.9583    297.49333  -0.86739888   -1699.5927    2.8580777 
   18300    298.71459    -1715.797   -1699.1552    3158.2693    5041.2717    2.8558744    5052.9393    297.54221    5.8835786   -1699.5884    2.8580741 
   18400    310.37237   -1716.3282    -1699.037    1853.3178    5047.0941    2.8569735    5052.9174    297.59993    12.087133   -1699.5825      2.85807 
   18500    289.17069   -1714.9542   -1698.8442   -1541.7826    5059.3215    2.8592788    5052.9353    297.66168    8.9030705    -1699.575    2.8580734 
   18600    284.16131   -1714.2642   -1698.4332    -3244.505    5064.9747    2.8603433    5052.9634    297.74083    4.1036062   -1699.5644    2.8580787 
   18700    316.45107   -1715.4307   -1697.8008   -1406.4753     5059.745    2.8593586    5052.9891     297.9049   0.40603126   -1699.5478    2.8580835 
   18800    319.52972   -1715.0764    -1697.275    2185.4806    5050.7377    2.8576608     5053.008    298.09723    2.6514832   -1699.5246    2.8580871 
   18900    327.36467   -1715.3166   -1697.0788    1543.1008    5049.7367     2.857472    5053.0186    298.31296    7.5293301   -1699.4979    2.8580891 
   19000    298.03557   -1713.8501   -1697.2462   -3197.9579     5063.706    2.8601045    5053.0458    298.55247    7.3377866   -1699.4716    2.8580943 
   19100     322.7675   -1715.7533   -1697.7715   -3217.1177    5065.2743    2.8603997    5053.0848    298.74792    2.5705068   -1699.4498    2.8581016 
   19200    322.10882    -1716.451   -1698.5059   -1092.8209     5056.682    2.8587815    5053.1108     298.8523   -3.1633543   -1699.4355    2.8581065 
   19300    286.98898   -1715.0655    -1699.077    4763.7858    5038.9145    2.8554293    5053.1037    298.91731  -0.53286183   -1699.4289    2.8581052 
   19400    315.35366   -1716.9909   -1699.4222    7302.2784    5030.3736     2.853815    5053.0818    298.94737     6.963668   -1699.4272    2.8581011 
   19500    300.55121   -1716.4378   -1699.6938     1462.934    5049.3778    2.8574043    5053.0501    298.93406    16.643813   -1699.4287    2.8580951 
   19600    305.82806   -1716.7885   -1699.7504   -7878.4251    5078.7434    2.8629329    5053.0656    298.88658    11.154208   -1699.4317    2.8580979 
   19700    291.94522   -1716.0314   -1699.7668   -9036.7612    5082.6823    2.8636728    5053.1144    298.85221   -1.9765906   -1699.4354    2.8581071 
   19800    292.60905   -1716.0903   -1699.7887   -329.59757    5054.7089    2.8584096    5053.1382    298.82122   -8.5934521   -1699.4389    2.8581115 
   19900    302.12575   -1716.4021   -1699.5703    7928.7983    5028.7921    2.8535159    5053.1223    298.78782  -0.36479216   -1699.4413    2.8581085 
Finished 300 K - next row contains averaged properties
   20000     299.7149   -1715.9541   -1699.2567    6315.5984    5032.1457    2.8541501     5053.097    298.79465    9.3248749   -1699.4414    2.8581037 
Loop time of 5.86347 on 2 procs for 10000 steps with 432 atoms

Performance: 294.706 ns/day, 0.081 hours/ns, 1705.473 timesteps/s
99.6% CPU use with 2 MPI tasks x 1 OpenMP threads

MPI task timing breakdown:
Section |  min time  |  avg time  |  max time  |%varavg| %total
---------------------------------------------------------------
Pair    | 5.0259     | 5.0924     | 5.1589     |   2.9 | 86.85
Neigh   | 0.00054502 | 0.00055003 | 0.00055504 |   0.0 |  0.01
Comm    | 0.3667     | 0.435      | 0.50331    |  10.4 |  7.42
Output  | 0.031096   | 0.031328   | 0.03156    |   0.1 |  0.53
Modify  | 0.25813    | 0.26052    | 0.26291    |   0.5 |  4.44
Other   |            | 0.04367    |            |       |  0.74

Nlocal:    216 ave 218 max 214 min
Histogram: 1 0 0 0 0 0 0 0 0 1
Nghost:    2045 ave 2048 max 2042 min
Histogram: 1 0 0 0 0 0 0 0 0 1
Neighs:    15032.5 ave 15124 max 14941 min
Histogram: 1 0 0 0 0 0 0 0 0 1

Total # of neighbors = 30065
Ave neighs/atom = 69.5949
Neighbor list builds = 1
Dangerous builds = 0
System init for write_data ...
Setting up Verlet run ...
  Unit style    : metal
  Current step  : 0
  Time step     : 0.002
Per MPI rank memory allocation (min/avg/max) = 4.309 | 4.309 | 4.309 Mbytes
Step Temp PotEng TotEng Press Volume 
       0          600   -1715.9541   -1682.5274    9866.5241    5032.1457 
     100    457.86759   -1707.1374   -1681.6291    3233.3492    5061.0529 
     200    436.63004   -1704.0594   -1679.7342   -8647.5778    5102.9978 
     300    467.20764   -1704.1022   -1678.0735   -7839.6529    5103.5895 
     400    489.33566   -1703.4027   -1676.1413    1531.8601    5075.5931 
     500    533.14689   -1703.6244   -1673.9222    5638.9159    5059.1821 
     600    566.31808   -1703.3412    -1671.791     1604.343    5076.9568 
     700    558.49529   -1700.7801   -1669.6657   -903.15282    5091.6959 
     800    554.41331   -1698.5338   -1667.6468   -2699.7039    5100.6852 
     900    575.84731   -1697.8828   -1665.8017   -1914.2681    5097.3853 
    1000    587.60036   -1696.8776   -1664.1417    2068.4431    5089.7617 
    1100    629.23757   -1697.8073   -1662.7518    1811.3166    5091.9095 
    1200    610.62036   -1695.7169   -1661.6986    369.17237    5093.9975 
    1300     630.7534   -1696.1899     -1661.05   -4207.4021    5109.9294 
    1400    644.25502   -1696.7394   -1660.8472   -1062.8425    5104.0584 
    1500    662.23966   -1698.0565   -1661.1624    636.61991    5094.3092 
    1600    621.51784   -1696.5755     -1661.95    2667.2927    5088.4558 
    1700    619.48008   -1697.5701   -1663.0581     2134.486    5089.2569 
    1800    611.34599   -1698.2797   -1664.2209   -1982.3579    5101.2699 
    1900     575.7541   -1697.3007   -1665.2248   -2509.9807    5103.0689 
    2000    562.37392   -1697.3289   -1665.9984   -82.671104      5092.44 
    2100    583.12762    -1698.952   -1666.4653    3508.5459    5079.8443 
    2200    587.32129    -1699.342   -1666.6217    5749.4674    5074.1533 
    2300    607.85708   -1700.3333   -1666.4689   -2235.1872    5097.4709 
    2400     561.2596     -1697.11   -1665.8416   -9138.0798    5122.5704 
    2500    595.23541   -1698.1908   -1665.0296   -6482.5884    5113.8115 
    2600    616.24917   -1698.3445   -1664.0126    5304.7106    5074.8143 
    2700     593.0728    -1696.104   -1663.0632    10261.405    5062.8115 
    2800    604.38483   -1696.1753   -1662.5044    1179.2682    5098.8438 
    2900    610.68008   -1696.0589   -1662.0372   -8380.9619    5130.0094 
    3000    622.94431   -1696.6927   -1661.9878   -5021.3313    5109.9382 
    3100    605.59405   -1695.9799   -1662.2416    4116.6658    5083.7423 
    3200    635.28915   -1698.3641   -1662.9714    6567.9118    5077.8251 
    3300    581.56133   -1696.7672   -1664.3678   -300.41253    5096.7452 
    3400    583.55751   -1698.3219   -1665.8113   -2871.2591    5106.6784 
    3500    568.80565   -1698.3343   -1666.6455   -1892.9566    5098.3207 
    3600    564.57958   -1698.3049   -1666.8516    3028.6881    5085.4872 
    3700    558.03449   -1697.7454   -1666.6567    3319.4942    5078.6233 
    3800    611.82072   -1700.3095   -1666.2243    1378.0766    5088.0606 
    3900    585.15942   -1698.1931   -1665.5932   -2709.2191    5101.5073 
    4000    604.76896   -1698.6186   -1664.9262   -3940.8134    5104.4334 
    4100    575.67394   -1696.3889   -1664.3175   -843.19953    5097.0816 
    4200    586.83604   -1696.5418   -1663.8485     4058.048    5085.2835 
    4300    629.17456   -1698.6215   -1663.5695    3855.3624    5080.7194 
    4400    603.72262   -1697.1345   -1663.5004   -2914.9584    5106.9218 
    4500    590.23352    -1696.343   -1663.4604   -7984.6833    5126.8686 
    4600    589.84704   -1696.5008   -1663.6398    340.90138    5098.7243 
    4700    600.79583   -1697.0988   -1663.6278    11850.621    5055.1648 
    4800    592.33889   -1696.8578   -1663.8579    7621.8386    5071.0336 
    4900    608.19183   -1697.8439   -1663.9609   -6475.9647    5118.7401 
    5000     577.7154   -1696.1572    -1663.972   -9609.3584    5130.2359 
    5100    573.47033   -1696.0729   -1664.1242   -260.89894     5096.551 
    5200    595.89887   -1697.3283   -1664.1301    6972.3136    5070.3627 
    5300    594.14902   -1697.2744   -1664.1737     5272.104    5078.3485 
    5400    602.53333   -1697.7798    -1664.212   -1026.8972    5099.1948 
    5500    611.65048   -1698.2799   -1664.2041   -6173.2795    5109.8111 
    5600    576.33423   -1696.3352   -1664.2269   -2790.8167      5105.89 
    5700    610.51721    -1698.253   -1664.2404    1635.7497    5088.7714 
    5800    610.36453   -1698.2708   -1664.2667    3731.0272    5086.8188 
    5900    605.12936   -1697.9926   -1664.2802   -706.10088    5094.2395 
    6000    582.29784   -1696.7012   -1664.2608   -1327.2846    5099.6267 
    6100    597.46458   -1697.5076   -1664.2221    578.38134    5095.3676 
    6200    605.96998   -1697.8867   -1664.1275    1774.4979    5087.9956 
    6300    588.10579   -1696.5523   -1663.7883    985.70467     5091.158 
    6400    610.40946    -1697.213   -1663.2064   -1596.8588    5100.4359 
    6500    601.86502   -1696.1609   -1662.6303   -1835.7481    5105.2434 
    6600    609.68226   -1696.2097   -1662.2436    218.68979     5096.953 
    6700    586.47702   -1694.7913    -1662.118    2254.5499    5091.0935 
    6800    635.96329   -1697.7371   -1662.3068    1000.3132    5091.2602 
    6900    611.55387    -1696.902   -1662.8316   -1022.5664    5098.7966 
    7000    616.28263   -1697.9952   -1663.6614   -5313.2192    5106.3516 
    7100    606.65789    -1698.385   -1664.5874   -2858.4342    5100.5345 
    7200     589.6214   -1698.2461   -1665.3976    1210.6243    5088.9794 
    7300    603.21084   -1699.5713   -1665.9657    4062.8697    5078.4623 
    7400    549.13395   -1696.8801   -1666.2872    2580.8871    5085.7205 
    7500    587.08643    -1699.002   -1666.2948   -3585.9051    5104.4535 
    7600    581.70087   -1698.3027   -1665.8955   -6583.0456    5112.8861 
    7700    576.90817   -1697.0432    -1664.903    742.01614    5091.9921 
    7800    622.87216   -1697.8205   -1663.1196    8730.3742    5066.7621 
    7900    600.21415    -1695.252   -1661.8134    5190.5603    5083.6223 
    8000    628.05401    -1696.291   -1661.3014   -6646.7695    5122.4074 
    8100     589.8749   -1694.1989   -1661.3363    -7652.859    5125.0671 
    8200     609.2653   -1695.7687   -1661.8259   -85.579849    5097.0425 
    8300    625.92506   -1697.3303   -1662.4593    6561.0171    5074.0428 
    8400    610.54592   -1697.3262    -1663.312    3426.1547    5082.8068 
    8500    593.99219   -1697.1913   -1664.0993     -4156.86    5108.0395 
    8600    596.64741   -1697.9012   -1664.6613    -5508.066    5108.6108 
    8700    593.70686   -1698.1184   -1665.0424   -684.01372    5098.4323 
    8800    595.28167   -1698.3009    -1665.137    6242.9313    5073.9662 
    8900    581.51974   -1697.5081    -1665.111    7692.2421    5068.4563 
    9000    597.47582   -1698.3043   -1665.0183    -3050.828     5100.645 
    9100    605.04119   -1698.3923   -1664.6848   -12864.242    5134.4852 
    9200     585.7663   -1697.1899   -1664.5562   -7509.1179    5118.9756 
    9300    590.40278   -1697.1835   -1664.2915    11822.237    5055.0211 
    9400    609.81932   -1697.9564   -1663.9827    17116.587    5037.5002 
    9500    574.27172   -1696.1453    -1664.152    617.14883    5092.0868 
    9600    574.79169    -1695.912   -1663.8898   -12204.024     5136.315 
    9700    609.82557   -1697.9277   -1663.9536   -6621.2779    5114.3903 
    9800    626.49729   -1698.8425   -1663.9396    1550.3487    5084.3008 
    9900     601.4757   -1697.4221   -1663.9132    3594.1529    5081.1911 
   10000    618.66743   -1698.4477    -1663.981    1518.2799    5086.6628 
Loop time of 5.20681 on 2 procs for 10000 steps with 432 atoms

Performance: 331.873 ns/day, 0.072 hours/ns, 1920.561 timesteps/s
99.7% CPU use with 2 MPI tasks x 1 OpenMP threads

MPI task timing breakdown:
Section |  min time  |  avg time  |  max time  |%varavg| %total
---------------------------------------------------------------
Pair    | 4.626      | 4.6498     | 4.6737     |   1.1 | 89.30
Neigh   | 0.00042701 | 0.00043499 | 0.00044298 |   0.0 |  0.01
Comm    | 0.32378    | 0.34971    | 0.37565    |   4.4 |  6.72
Output  | 0.030221   | 0.030403   | 0.030585   |   0.1 |  0.58
Modify  | 0.13724    | 0.13912    | 0.14099    |   0.5 |  2.67
Other   |            | 0.03732    |            |       |  0.72

Nlocal:    216 ave 218 max 214 min
Histogram: 1 0 0 0 0 0 0 0 0 1
Nghost:    1973 ave 1988 max 1958 min
Histogram: 1 0 0 0 0 0 0 0 0 1
Neighs:    15139.5 ave 15278 max 15001 min
Histogram: 1 0 0 0 0 0 0 0 0 1

Total # of neighbors = 30279
Ave neighs/atom = 70.0903
Neighbor list builds = 1
Dangerous builds = 0
Setting up Verlet run ...
  Unit style    : metal
  Current step  : 10000
  Time step     : 0.002
Per MPI rank memory allocation (min/avg/max) = 4.309 | 4.309 | 4.309 Mbytes
Step Temp PotEng TotEng Press Volume v_my_lx f_1 f_2 f_3 f_4 f_5 
   10000    618.66743   -1698.4477    -1663.981    1518.2799    5086.6628    2.8644202            0            0            0            0            0 
   10100     611.9956   -1698.2151   -1664.1202   -2726.4433    5103.7816    2.8676299    5094.1615    602.52732    106.60097     -1664.03    2.8658255 
   10200    580.96539   -1696.8885   -1664.5223    -3853.426    5107.3543    2.8682989    5093.8295    600.98674    357.82193   -1664.1619    2.8657636 
   10300    592.70492   -1698.3031   -1665.2828   -1262.5052    5097.1516    2.8663877     5092.981    599.83199    462.30582   -1664.4031    2.8656045 
   10400    599.12712   -1699.4547   -1666.0767    4305.3595    5080.6525    2.8632916    5093.2098    595.61269     291.9362   -1664.7253    2.8656474 
   10500    569.50399   -1698.4176   -1666.6899    3844.6259     5078.121    2.8628159    5093.9263    592.56123    18.233208   -1665.0649    2.8657817 
   10600     558.0598   -1698.0489   -1666.9588   -1274.5631    5097.1639      2.86639    5093.8207    589.79187   -56.750374    -1665.362    2.8657617 
   10700    590.43604   -1699.6501   -1666.7562   -5689.1039    5108.8451    2.8685779    5092.9116    587.74847    98.919763   -1665.5806    2.8655911 
   10800    578.83767   -1698.3924   -1666.1447   -675.40629    5095.8683    2.8661471    5092.2093    586.91313    204.24993   -1665.6944    2.8654593 
   10900    604.84821     -1698.76   -1665.0632    2444.4159    5083.2326    2.8637762    5092.5663    587.22082    129.21165   -1665.6866    2.8655263 
   11000    577.78562   -1696.0695   -1663.8804    5082.3702    5086.2846    2.8643492    5093.1317    588.27795    31.972181   -1665.5644    2.8656324 
   11100    621.75178   -1697.6332   -1662.9947   -1323.2579    5098.6737    2.8666729    5093.5776    589.63073   -3.6504692   -1665.3675    2.8657161 
   11200    616.30945   -1696.8327   -1662.4974   -3479.1529    5108.4775    2.8685091    5093.8097     591.6477    27.773874   -1665.1457    2.8657596 
   11300    595.51947   -1695.5286   -1662.3516   -1299.1773    5104.4338    2.8677521    5094.0697    593.50727     61.66782   -1664.9343    2.8658085 
   11400    603.96884   -1696.1516   -1662.5038   -966.33454    5103.9681    2.8676648    5094.3185    594.95795     86.95204   -1664.7535    2.8658552 
   11500      612.324   -1696.9858   -1662.8726    4326.8105    5083.5369    2.8638333    5094.5916    596.04715    87.204312   -1664.6148    2.8659064 
   11600    589.51166   -1696.2865   -1663.4441    6664.2529    5075.4239     2.862309    5094.9299    596.70999    16.150505   -1664.5237    2.8659697 
   11700    586.30898   -1696.9771   -1664.3131   -7.7212954    5093.9741    2.8657919    5095.2248     597.1693    -50.38652   -1664.4843    2.8660249 
   11800    586.56935   -1698.0777   -1665.3993   -6138.0097    5118.4083    2.8703667     5095.083    597.07068   -12.564839   -1664.5033    2.8659981 
   11900     563.4697   -1698.2748   -1666.8833   -6908.1649    5115.7446    2.8698687    5094.5662    596.28125    104.32209   -1664.5904     2.865901 
   12000     556.5546   -1699.1922   -1668.1859    3894.0478    5076.3782    2.8624884    5094.3029    595.08014    134.03773   -1664.7385    2.8658513 
   12100    538.48769   -1698.5989   -1668.5991    12859.095    5049.6003    2.8574463    5094.3806    593.73813    30.424448   -1664.9163    2.8658656 
   12200    589.80591   -1701.4134   -1668.5547    2461.0288     5077.942    2.8627823    5094.5226    591.99806   -66.629733   -1665.0852    2.8658919 
   12300    550.84803   -1698.7195   -1668.0312   -9274.2685    5122.5538    2.8711414    5094.1385    590.77352   -19.095351    -1665.224    2.8658195 
   12400    556.14221   -1698.4598   -1667.4765    -6520.532     5113.153     2.869384    5093.6726    589.96221    76.569437   -1665.3307     2.865732 
   12500    571.27286   -1698.6059   -1666.7796    392.61859    5089.3194    2.8649188    5093.5645    589.30756    87.400715   -1665.4024    2.8657117 
   12600    591.25568   -1698.7462   -1665.8067    4749.4813    5076.0758    2.8624315    5093.6808    589.11798    36.192331   -1665.4369    2.8657336 
   12700    617.74302   -1699.2667   -1664.8515    2867.5881    5082.6322    2.8636634    5093.8248    589.09668   -1.7460992   -1665.4333    2.8657606 
   12800    601.93375   -1697.5239   -1663.9895   -1840.0516    5100.9387    2.8670974     5093.872    589.38423   -12.780076   -1665.3962    2.8657695 
   12900    648.41909   -1699.3714   -1663.2472   -7296.9909    5117.7346    2.8702408    5093.8521    589.99091     22.09641   -1665.3341    2.8657658 
   13000    625.22796   -1697.5999   -1662.7677   -2567.4411    5105.9977    2.8680449     5093.822     590.7192    62.978773   -1665.2559    2.8657602 
   13100    594.05277   -1695.5506   -1662.4553    6911.4712    5076.0601    2.8624286    5093.9893    591.23971     47.01014     -1665.17    2.8657915 
   13200     625.8903   -1697.3176   -1662.4486    4417.4003    5080.7706    2.8633137    5094.2734    592.06095   -5.4320984   -1665.0847    2.8658448 
   13300    598.66596   -1696.1048   -1662.7524    -3527.431    5109.1064    2.8686268    5094.4362    592.76395   -15.304004   -1665.0081    2.8658753 
   13400    579.56843   -1695.7676   -1663.4792   -5917.2839    5117.6088    2.8702173    5094.3582    593.25118     24.94799   -1664.9512    2.8658607 
   13500    600.02031   -1698.3043   -1664.8765   -491.62454    5094.0586    2.8658078     5094.318    593.28851    48.279196   -1664.9282    2.8658532 
   13600    600.34289   -1699.7591   -1666.3134    2448.2693    5081.0484    2.8633659    5094.3878    593.17636    24.018627   -1664.9478    2.8658663 
   13700    576.56933   -1699.2712   -1667.1499     33.53457    5088.1697     2.864703    5094.3622    592.81594    8.2169338   -1664.9978    2.8658616 
   13800    578.14857   -1699.5713    -1667.362   -1261.2131     5098.085    2.8665626    5094.2705    592.31154    12.874696   -1665.0584    2.8658444 
   13900    586.76215    -1699.821   -1667.1318   -2568.6783    5097.7399    2.8664979    5094.1491    591.81495    28.263983   -1665.1154    2.8658218 
   14000    578.81987   -1698.8306   -1666.5839    1358.0845    5087.7049    2.8646158    5094.1333    591.48767    22.195113   -1665.1593    2.8658189 
   14100    589.29346   -1698.6938   -1665.8636   -137.73955    5093.9048    2.8657789    5094.1623    591.32478    11.612106   -1665.1853    2.8658244 
   14200    590.70737   -1698.0641   -1665.1551   -1263.0184    5099.1923    2.8667701    5094.1123    591.26447    19.594978   -1665.1927     2.865815 
   14300    588.32041   -1697.3957   -1664.6198   -696.77775    5094.5118    2.8658927    5094.1114    591.33543    22.385292   -1665.1852    2.8658149 
   14400    601.00099   -1697.7274    -1664.245    836.23514    5087.4573    2.8645693    5094.1774    591.48061    10.401818   -1665.1677    2.8658274 
   14500    595.82935   -1697.2207   -1664.0263   -1033.5571    5100.8018    2.8670717    5094.2681    591.62673   -2.1729832   -1665.1445    2.8658444 
   14600     571.9964   -1695.7502   -1663.8836   -4060.5184    5111.9246    2.8691542    5094.2346    591.85669    18.709015   -1665.1186    2.8658382 
   14700    590.48618   -1696.7451   -1663.8485    819.50972    5092.6969    2.8655524    5094.2097    592.20275    32.161172   -1665.0916    2.8658335 
   14800    601.05254   -1697.3051   -1663.8198    4708.3715    5080.0966    2.8631871    5094.3483    592.37774    11.100191   -1665.0654    2.8658595 
   14900    618.79224   -1698.3752   -1663.9016    2095.7969     5094.662    2.8659209     5094.471    592.58408   -8.3070272   -1665.0409    2.8658825 
   15000    583.17152   -1696.5039   -1664.0147   -5271.3391    5113.2343    2.8693992    5094.4861    592.73448    4.8604364    -1665.019    2.8658854 
   15100     612.4023   -1698.4458   -1664.3282   -2743.5762    5106.3159    2.8681045    5094.4366    592.90981    27.809785    -1665.002    2.8658761 
   15200    599.52113   -1698.3951   -1664.9951    3122.2717    5082.1575    2.8635743    5094.4608    592.98976    28.155083   -1664.9946    2.8658806 
   15300    587.76944   -1698.7578   -1666.0125    5802.0434    5074.7454    2.8621814    5094.5324     592.8809    2.8477743   -1665.0043    2.8658941 
   15400    569.33214   -1698.7472   -1667.0291   -861.65881    5094.5605    2.8659019    5094.5458     592.6451   -14.218603   -1665.0329    2.8658966 
   15500    580.58177    -1699.925   -1667.5801   -7051.5295    5115.2303    2.8697725    5094.4441    592.40182    2.1751302   -1665.0748    2.8658775 
   15600    555.54328    -1698.679    -1667.729   -4777.8399    5108.0486    2.8684289    5094.2972    591.96291    33.433462   -1665.1217    2.8658499 
   15700    573.53065   -1699.2585   -1667.3065    6469.1873    5070.7631    2.8614326    5094.2275    591.66429    40.723213   -1665.1641    2.8658368 
   15800    582.09142   -1698.6499   -1666.2209    11144.933    5057.6514    2.8589641    5094.3657    591.36301    -2.442846   -1665.1931    2.8658626 
   15900    578.58993   -1697.2012   -1664.9673    1904.5081    5092.6864    2.8655504     5094.465     591.2473   -27.976278   -1665.1997    2.8658811 
   16000    602.72477    -1697.317   -1663.7385   -11124.759    5131.8001    2.8728679    5094.4224    591.44778   -8.2257441   -1665.1843     2.865873 
   16100    598.05389   -1696.4865   -1663.1682   -9153.1919    5126.9982    2.8719715    5094.3325    591.71405    30.593838   -1665.1559    2.8658561 
   16200    626.09272   -1697.8697   -1662.9894    2525.2048    5088.5703    2.8647782    5094.3553    592.00942    40.677302   -1665.1218    2.8658602 
   16300    592.09182   -1695.8995   -1662.9134    9493.5967     5067.727    2.8608614    5094.5177    592.25562     13.67362   -1665.0872    2.8658906 
   16400    620.89574    -1697.751   -1663.1602    3204.2439    5084.7401    2.8640592    5094.6586    592.53475   -12.929172   -1665.0551     2.865917 
   16500    648.03492   -1699.5558    -1663.453   -5913.1118    5114.7308    2.8696791    5094.6887    592.74379   -7.3904553   -1665.0278    2.8659226 
   16600    603.38835   -1697.5337   -1663.9182   -7592.2451    5120.7318     2.870801    5094.6386    592.91235    16.191294   -1665.0076    2.8659132 
   16700    577.47043   -1696.8519   -1664.6804   -594.11574     5097.737    2.8664974    5094.5985    592.99934    31.766714   -1664.9967    2.8659057 
   16800    606.85075   -1699.4529   -1665.6446    5354.5064    5074.9146    2.8622133    5094.6497     592.9928    18.325123   -1664.9986    2.8659153 
   16900     578.4258   -1699.1794   -1666.9547    5876.7318    5075.2859     2.862283    5094.7221    592.80896    -3.002105   -1665.0177    2.8659289 
   17000    563.31656   -1699.5219   -1668.1389   -4055.1569      5101.44    2.8671913    5094.6968    592.49509   -8.7225968   -1665.0542    2.8659241 
   17100    579.19325   -1700.9618   -1668.6943    -8093.018    5116.0336    2.8699227    5094.5696    592.03462    12.406317   -1665.1025    2.8659003 
   17200    535.73345   -1698.5495   -1668.7032   -1474.2732    5099.6785    2.8668613    5094.4371    591.69164    31.252124   -1665.1532    2.8658754 
   17300    578.87845   -1700.1242   -1667.8742    6989.7863    5069.1955    2.8611377    5094.4306    591.30039    24.248516    -1665.197    2.8658741 
   17400    600.33684   -1699.6493   -1666.2039     5079.999     5072.675    2.8617922    5094.5041    591.05923   -3.6321994   -1665.2228    2.8658879 
   17500    604.91017   -1698.4421   -1664.7419   -3432.2023    5104.4008    2.8677459    5094.5148    591.08044   -10.454454   -1665.2246    2.8658899 
   17600    580.24096   -1696.4896   -1664.1637   -8334.3556     5121.994    2.8710368    5094.4566    591.13119    12.308574   -1665.2138     2.865879 
   17700     614.6017   -1698.2159   -1663.9757    -1642.168    5102.6727    2.8674222     5094.413    591.28441    26.675402   -1665.1988    2.8658708 
   17800    604.43198   -1697.4513   -1663.7777    4469.4303    5080.0778    2.8631836    5094.4621    591.45071    18.139144   -1665.1817      2.86588 
   17900     610.5997   -1697.7047   -1663.6875    4302.9896    5080.7676    2.8633132    5094.5387    591.57148    1.3753764   -1665.1634    2.8658944 
   18000    569.11574   -1695.3561     -1663.65    127.51208    5100.7835    2.8670683    5094.5816    591.77056  -0.65574949   -1665.1446    2.8659025 
   18100    596.79518   -1696.8993   -1663.6512   -4109.8866    5111.5995    2.8690934    5094.5817    591.88849    10.113212   -1665.1261    2.8659025 
   18200    604.70775   -1697.4347   -1663.7457   -281.75938    5100.0841    2.8669373    5094.6032    592.03122     16.23082   -1665.1086    2.8659066 
   18300    584.48134   -1696.4815   -1663.9194    2400.5587    5087.2092    2.8645227    5094.6309    592.14454    14.256371   -1665.0931    2.8659118 
   18400    624.81435   -1699.0214   -1664.2123     79.97603     5094.502    2.8658909     5094.688    592.26267    5.5566599   -1665.0808    2.8659225 
   18500    596.90608   -1697.8748   -1664.6205   -2131.2427    5103.6946    2.8676136    5094.6913    592.31079     6.765261   -1665.0729    2.8659232 
   18600    607.34617    -1698.989   -1665.1531   -1324.8544    5097.8321    2.8665152    5094.6877    592.36806     11.22005   -1665.0707    2.8659225 
   18700    603.95214   -1699.3592   -1665.7124      1520.13    5088.1532    2.8646999    5094.6967    592.34286     8.842931   -1665.0749    2.8659242 
   18800    567.57474   -1697.8566   -1666.2364    1139.2018    5090.0529    2.8650564    5094.6946    592.24725    4.8894744   -1665.0853    2.8659239 
   18900    575.33173   -1698.6786   -1666.6263    133.52726    5092.8491    2.8655809    5094.6835    592.08362    2.7633385   -1665.1006    2.8659218 
   19000    558.54351   -1697.9096   -1666.7925   -330.31072    5095.4678     2.866072    5094.6485    591.96461    5.9625066   -1665.1188    2.8659153 
   19100    559.44711   -1697.7455   -1666.5781    713.89871    5091.8279    2.8653894     5094.597    591.83787    10.927536   -1665.1363    2.8659057 
   19200    594.35062   -1698.8957   -1665.7838    2618.2611    5084.4236    2.8639998    5094.5766    591.71529     8.674225   -1665.1482    2.8659019 
   19300    576.31489    -1696.594   -1664.4869    789.43085    5090.1605    2.8650766    5094.6166     591.6708   -1.2191045   -1665.1483    2.8659094 
   19400    585.05932   -1695.7629   -1663.1686   -1846.6203    5108.3925    2.8684932    5094.6281    591.82951    1.1287063   -1665.1337    2.8659116 
   19500    602.60802   -1695.9359   -1662.3639   -4418.2286    5110.8981    2.8689621    5094.6242    592.06635    12.202255   -1665.1082    2.8659109 
   19600    609.45355   -1695.9717   -1662.0184    3514.9894    5089.7933    2.8650077    5094.6552    592.31519      14.9066   -1665.0774    2.8659167 
   19700    616.91174    -1696.375   -1662.0062    6040.7276    5075.1311     2.862254     5094.724    592.57346    2.7009844   -1665.0456    2.8659296 
   19800    633.17893    -1697.643   -1662.3679    2250.1293    5092.0433    2.8654298    5094.7824    592.79963   -7.4114813   -1665.0163    2.8659405 
   19900    611.39377   -1697.0516   -1662.9902   -6855.3587    5118.6068    2.8704038    5094.7796    593.03341   -1.0304839   -1664.9924      2.86594 
Finished 600 K - next row contains averaged properties
   20000    637.87711   -1699.4737   -1663.9368   -4319.4735    5110.4655    2.8688812    5094.7466     593.1862    14.752404   -1664.9769    2.8659338 
Loop time of 5.92986 on 2 procs for 10000 steps with 432 atoms

Performance: 291.406 ns/day, 0.082 hours/ns, 1686.380 timesteps/s
99.7% CPU use with 2 MPI tasks x 1 OpenMP threads

MPI task timing breakdown:
Section |  min time  |  avg time  |  max time  |%varavg| %total
---------------------------------------------------------------
Pair    | 5.168      | 5.198      | 5.2279     |   1.3 | 87.66
Neigh   | 0.00041795 | 0.00043905 | 0.00046015 |   0.0 |  0.01
Comm    | 0.37082    | 0.39822    | 0.42562    |   4.3 |  6.72
Output  | 0.030314   | 0.030548   | 0.030782   |   0.1 |  0.52
Modify  | 0.25769    | 0.25951    | 0.26133    |   0.4 |  4.38
Other   |            | 0.04316    |            |       |  0.73

Nlocal:    216 ave 224 max 208 min
Histogram: 1 0 0 0 0 0 0 0 0 1
Nghost:    1970.5 ave 2000 max 1941 min
Histogram: 1 0 0 0 0 0 0 0 0 1
Neighs:    15035.5 ave 15674 max 14397 min
Histogram: 1 0 0 0 0 0 0 0 0 1

Total # of neighbors = 30071
Ave neighs/atom = 69.6088
Neighbor list builds = 1
Dangerous builds = 0
System init for write_data ...
Setting up Verlet run ...
  Unit style    : metal
  Current step  : 0
  Time step     : 0.002
Per MPI rank memory allocation (min/avg/max) = 4.309 | 4.309 | 4.309 Mbytes
Step Temp PotEng TotEng Press Volume 
       0          900   -1699.4737   -1649.3336   -1267.3262    5110.4655 
     100    778.31506   -1691.4505   -1648.0897   -1661.1291    5120.9728 
     200    757.98553   -1687.6328   -1645.4046   -1773.0026    5128.7225 
     300    770.88247   -1686.1896   -1643.2429    3588.9936    5116.9884 
     400    825.41193   -1686.8557   -1640.8711   -1933.9794    5132.2404 
     500    814.96536   -1683.5753   -1638.1726   -3146.6968    5146.5426 
     600    870.43344   -1683.9722   -1635.4794    3811.0616    5121.6962 
     700    840.36584   -1679.7901   -1632.9723   -687.53597    5148.1659 
     800    874.11874   -1679.3624   -1630.6642   -1401.1622    5149.1696 
     900    892.21913   -1678.2501   -1628.5435     4028.853    5132.1712 
    1000    922.32101   -1678.1236     -1626.74   -6697.6938    5178.6494 
    1100    948.44043   -1678.2281   -1625.3894    5723.9662    5129.0466 
    1200    973.31471   -1678.8304    -1624.606   -1453.1588    5155.7785 
    1300     936.8168   -1676.3916   -1624.2005   -8041.0084    5184.0193 
    1400     959.8947   -1677.9591   -1624.4823    7065.9236    5125.1814 
    1500    897.96933   -1675.5285   -1625.5016   -1367.4187     5166.125 
    1600    941.96015   -1679.3329   -1626.8552   -534.99311    5155.7732 
    1700    903.84264   -1678.7475   -1628.3934    4695.5136    5128.5814 
    1800     909.3045   -1680.3904   -1629.7321   -6434.4413     5170.952 
    1900    877.58359    -1679.639   -1630.7478   -507.85923    5141.7474 
    2000    868.79255   -1679.6779   -1631.2765    4644.7551    5131.2159 
    2100    867.15448   -1679.6696   -1631.3594    -7234.655    5167.3184 
    2200    881.55664   -1680.1211   -1631.0086    5666.1277    5127.7181 
    2300    845.18818   -1677.1914    -1630.105    1622.1991    5144.1375 
    2400    848.01054   -1675.6068   -1628.3632   -4449.5795    5173.3695 
    2500    893.72575   -1676.0897   -1626.2992    10703.506    5119.9363 
    2600    928.10926   -1676.6564   -1624.9504   -2821.1812     5165.211 
    2700    929.20842   -1676.1136   -1624.3463   -5555.4176    5176.6364 
    2800    974.67838   -1678.7197   -1624.4193    9172.5255    5120.3229 
    2900    892.56466    -1674.822   -1625.0962   -9967.3156    5193.0709 
    3000    899.80976   -1676.1843   -1626.0549     1767.602    5152.0566 
    3100    942.57719    -1679.175   -1626.6629    11076.847    5113.2763 
    3200    923.15472   -1678.6582   -1627.2282   -14936.215    5208.7988 
    3300    902.78737   -1678.0899   -1627.7946    10411.583    5117.4947 
    3400    853.33469   -1675.7249   -1628.1847    4479.2947    5137.2964 
    3500    872.55916   -1676.9582   -1628.3469   -10705.678    5185.3433 
    3600    935.01615   -1680.7165   -1628.6257    6732.5444    5121.7928 
    3700    888.66973   -1678.3544   -1628.8456   -606.13001    5151.9051 
    3800     858.2625   -1676.7437   -1628.9289   -1883.2136    5160.1014 
    3900    883.97025   -1678.2235   -1628.9766    5777.5584    5130.5453 
    4000    913.00426   -1679.8127   -1628.9482   -2231.7182     5156.433 
    4100    935.80437   -1680.6875   -1628.5528   -3293.9993    5160.3635 
    4200    900.57897   -1677.8396   -1627.6673    6220.5295    5132.4834 
    4300    877.06456   -1675.4993   -1626.6371   -2061.1935    5165.6996 
    4400    866.67679   -1673.9335     -1625.65      1733.38    5154.1594 
    4500    942.38356   -1677.4659   -1624.9647    2449.8994    5142.3286 
    4600    902.56933   -1675.0016   -1624.7184   -3992.8825    5171.6159 
    4700    893.23084   -1674.7543   -1624.9914     6347.841    5141.2621 
    4800    948.78389    -1678.769   -1625.9112    860.18519    5149.9617 
    4900      892.371   -1677.1263   -1627.4113   -3624.3985    5163.4007 
    5000    869.56317   -1677.6022   -1629.1578    6646.6561    5131.1859 
    5100     898.5167   -1680.6555   -1630.5981   -390.85842    5144.0614 
    5200    843.71079   -1678.3374   -1631.3334   -5124.5955    5162.2543 
    5300    881.02315   -1680.5968   -1631.5141    6848.1662    5121.7228 
    5400    869.70996   -1679.7557   -1631.3032    -1696.235    5146.6576 
    5500    887.47976   -1680.0949   -1630.6524   -11178.784    5178.7476 
    5600    923.02561   -1680.9006   -1629.4778    14261.087    5096.0366 
    5700    878.37027    -1677.325     -1628.39   -7507.8499    5178.9518 
    5800    878.65152   -1676.1396    -1627.189   -3572.5537    5163.8131 
    5900    959.25446   -1679.4149   -1625.9737    13847.083    5104.3809 
    6000    909.37734   -1676.0967   -1625.4343   -13204.655    5203.9737 
    6100    875.48944   -1674.3449   -1625.5704    4734.0575    5141.0404 
    6200    919.83391    -1676.943    -1625.698    7708.4918    5125.1369 
    6300    939.26513   -1678.2978   -1625.9703   -10893.611    5191.5191 
    6400    908.39468   -1677.2425   -1626.6348    5506.5374    5132.9395 
    6500    894.04433   -1677.2816   -1627.4734    1313.8625    5143.9368 
    6600    915.16044   -1679.4215   -1628.4369   -6266.9901    5171.9045 
    6700    872.65203   -1678.0468   -1629.4304     5037.893    5125.5537 
    6800    900.61726   -1680.5256   -1630.3512     -2574.88     5151.613 
    6900    868.38551   -1679.4296   -1631.0508   -3344.8554     5159.212 
    7000    868.80884    -1679.742   -1631.3397    9118.5852    5111.1107 
    7100    827.18956   -1677.3626    -1631.279   -3452.2411    5164.9103 
    7200    889.25632   -1680.0984    -1630.557     986.0655    5143.9929 
    7300    881.62011   -1678.0537   -1628.9377    6330.3963    5128.0748 
    7400    897.21154    -1676.784   -1626.7994   -4938.9527    5164.7482 
    7500    958.08744   -1678.5002   -1625.1241   -580.98955    5155.1813 
    7600    916.23074   -1675.3194   -1624.2751    4975.5707    5134.7384 
    7700    909.73991   -1674.8349   -1624.1522   -9574.8283    5182.7166 
    7800    921.10028   -1675.9637   -1624.6482    4526.2626    5140.0835 
    7900    940.76097   -1677.8892   -1625.4784    4296.4425    5134.2324 
    8000    892.57389   -1676.2345   -1626.5082   -10120.034    5189.5773 
    8100    877.37613   -1676.4127   -1627.5331    9168.3742    5116.6792 
    8200     900.1017   -1678.4882   -1628.3425   -2942.3894    5159.1428 
    8300    906.49585   -1679.2429    -1628.741   -5149.1263    5164.8638 
    8400    893.10285   -1678.4615   -1628.7058    13374.471     5099.174 
    8500    863.69342   -1676.8568   -1628.7395   -9565.1582    5188.6092 
    8600    918.98722   -1679.9634   -1628.7656    2255.7115    5137.9728 
    8700     917.6979   -1679.6478   -1628.5218    8757.3828    5114.2338 
    8800    896.18629   -1678.1046    -1628.177   -15142.923    5204.4803 
    8900    911.31976   -1678.7901   -1628.0195    10988.834    5110.1612 
    9000    898.17456   -1677.7963    -1627.758    1572.1786    5144.1993 
    9100    942.48523   -1679.4915   -1626.9846   -11006.546    5187.1516 
    9200    952.52402   -1678.9626   -1625.8964    6168.1685    5123.7833 
    9300    961.81721   -1678.0499    -1624.466   -2919.1442    5159.7345 
    9400    930.68349   -1674.9599   -1623.1105   -4806.1676    5174.1822 
    9500    935.14299   -1674.5379     -1622.44    4876.3608    5143.2356 
    9600    970.77139   -1676.7295   -1622.6467   -3976.6339    5171.9009 
    9700    919.75087   -1675.1739   -1623.9335   -642.55992    5157.8334 
    9800    928.70235   -1677.8228   -1626.0837    5014.4656    5134.4363 
    9900    926.16199   -1679.7633   -1628.1658   -3838.6301    5166.5839 
   10000    874.98115   -1678.1125   -1629.3664    2792.4816    5141.2711 
Loop time of 5.34162 on 2 procs for 10000 steps with 432 atoms

Performance: 323.497 ns/day, 0.074 hours/ns, 1872.090 timesteps/s
99.5% CPU use with 2 MPI tasks x 1 OpenMP threads

MPI task timing breakdown:
Section |  min time  |  avg time  |  max time  |%varavg| %total
---------------------------------------------------------------
Pair    | 4.6109     | 4.7144     | 4.818      |   4.8 | 88.26
Neigh   | 0.00042796 | 0.00043845 | 0.00044894 |   0.0 |  0.01
Comm    | 0.32117    | 0.42105    | 0.52093    |  15.4 |  7.88
Output  | 0.02904    | 0.029223   | 0.029407   |   0.1 |  0.55
Modify  | 0.13836    | 0.14024    | 0.14213    |   0.5 |  2.63
Other   |            | 0.03625    |            |       |  0.68

Nlocal:    216 ave 223 max 209 min
Histogram: 1 0 0 0 0 0 0 0 0 1
Nghost:    1913 ave 1944 max 1882 min
Histogram: 1 0 0 0 0 0 0 0 0 1
Neighs:    15035 ave 15625 max 14445 min
Histogram: 1 0 0 0 0 0 0 0 0 1

Total # of neighbors = 30070
Ave neighs/atom = 69.6065
Neighbor list builds = 1
Dangerous builds = 0
Setting up Verlet run ...
  Unit style    : metal
  Current step  : 10000
  Time step     : 0.002
Per MPI rank memory allocation (min/avg/max) = 4.309 | 4.309 | 4.309 Mbytes
Step Temp PotEng TotEng Press Volume v_my_lx f_1 f_2 f_3 f_4 f_5 
   10000    874.98115   -1678.1125   -1629.3664    2792.4816    5141.2711    2.8746341            0            0            0            0            0 
   10100    873.34755   -1678.5085   -1629.8533    3161.7651    5134.5262    2.8733765    5159.3241    879.04492   -3064.4155   -1629.6452    2.8779934 
   10200    904.83761   -1680.3439   -1629.9344   -7448.2744    5170.3583    2.8800451    5147.8015    883.15341   -372.37299   -1629.7788    2.8758466 
   10300    900.14223   -1679.9275   -1629.7796     7394.643     5124.701    2.8715425     5146.453    885.00049   -16.255323   -1629.8156    2.8755951 
   10400    890.07903   -1679.0098   -1629.4225   -1537.8791    5152.4562    2.8767173    5150.1985    885.36274   -790.18947   -1629.7677    2.8762924 
   10500     897.0083   -1678.6499   -1628.6766   -5182.9751    5167.7665    2.8795638    5147.7787    886.32312   -21.433219   -1629.6252    2.8758421 
   10600    925.17809   -1679.0796   -1627.5369    7160.2014    5127.2916    2.8720263    5148.7805    888.44588   -160.44539   -1629.3794    2.8760286 
   10700    918.33379   -1677.1914     -1626.03   -4749.6755    5165.0009      2.87905    5150.3071    891.84604   -427.26161   -1629.0142    2.8763128 
   10800    894.24612   -1673.9837   -1624.1642    -833.7298    5168.8925    2.8797729    5149.3052    897.18584    49.732689   -1628.5232    2.8761264 
   10900    929.78688   -1674.2398   -1622.4403    10931.215    5122.5272    2.8711365    5151.1737    900.85176   -210.02252   -1627.9414    2.8764737 
   11000    895.00437   -1671.4147    -1621.553   -7931.3655    5194.4061    2.8845033    5152.7004    905.04829   -313.83753    -1627.342     2.876757 
   11100    967.24665     -1675.54   -1621.6536   -330.94291     5156.057    2.8773872    5151.5845    910.59075    168.72959   -1626.8086     2.876549 
   11200    914.94844   -1673.9773   -1623.0045    10470.718    5121.5916    2.8709616    5153.7291    913.34471   -281.52437   -1626.4202    2.8769474 
   11300    926.10107   -1678.0798   -1626.4856   -11679.492    5195.5401    2.8847132    5153.4364     914.5959   -161.19986   -1626.2872    2.8768924 
   11400    926.56004    -1680.614   -1628.9943    5826.7874    5127.2462    2.8720178    5152.1632    913.99154    134.79072   -1626.4056    2.8766549 
   11500    905.02827   -1680.1926   -1629.7724      6474.43     5122.034    2.8710443    5153.2282    911.98107   -275.13764   -1626.6066     2.876853 
   11600    829.05276   -1676.1824   -1629.9949   -11100.423    5194.0489    2.8844372    5151.9043    910.33903   -17.841825   -1626.8136    2.8766059 
   11700    895.22853    -1679.933   -1630.0588    14338.615    5101.6928    2.8672387    5151.2301    909.05759    65.077178   -1627.0062    2.8764798 
   11800    917.21162   -1681.0369    -1629.938   -2499.5994    5147.3282    2.8757626    5151.9793    907.35856   -240.38426   -1627.1736    2.8766191 
   11900    919.95237   -1680.5088   -1629.2572    -9342.487    5175.9018     2.881074    5150.6541    906.65625    42.562183   -1627.3002    2.8763722 
   12000    870.69879   -1676.9054   -1628.3978    8444.8911    5117.2961    2.8701588    5150.6985    906.05311   -28.663723   -1627.3781    2.8763806 
   12100    955.39385   -1680.6663   -1627.4402   -4155.8389    5160.3942    2.8781938    5150.9919    905.84875   -134.73466   -1627.4045    2.8764354 
   12200    956.87011   -1679.6372   -1626.3289   -3811.5945    5157.8923    2.8777286    5150.3587    906.58741    11.745072   -1627.3793    2.8763178 
   12300    912.93404   -1676.2631   -1625.4025    4356.7987    5135.2232    2.8735065    5150.6716    906.97189   -63.718131   -1627.3128    2.8763763 
   12400    921.15977   -1676.0708   -1624.7519   -3258.6398    5171.0472     2.880173    5150.7372    907.82604   -50.857579   -1627.2189    2.8763888 
   12500    930.64377   -1676.1894   -1624.3422    2522.4221    5145.6651    2.8754528    5150.8653    908.24587   -23.248131   -1627.1114    2.8764129 
   12600    918.23733   -1675.6092   -1624.4531   -2072.4306    5159.6751    2.8780601     5151.123    909.20313   -62.076226   -1627.0049    2.8764612 
   12700    918.66871    -1676.611   -1625.4309    268.88625    5153.2568    2.8768662    5150.9034    910.11888   0.67757374   -1626.9245    2.8764205 
   12800     924.7933   -1678.9954   -1627.4741    4134.3565    5135.3512    2.8735304    5151.1094    910.07542   -54.472975   -1626.9062    2.8764591 
   12900    883.41301   -1678.9149    -1629.699   -5070.6942    5162.5485    2.8785943     5151.028    909.42355    -47.28769   -1626.9669    2.8764442 
   13000    883.18873    -1680.245   -1631.0415    2180.9757    5138.3134    2.8740828    5150.6415    908.76929     2.132072   -1627.0827    2.8763724 
   13100    866.40095   -1679.8665   -1631.5983    5710.3009    5132.0843    2.8729209    5150.7388    907.50079   -81.145687   -1627.2215    2.8763907 
   13200    878.40264   -1680.5673   -1631.6305   -7033.2775    5166.5919    2.8793456    5150.3782     906.4351   -39.292586   -1627.3603    2.8763236 
   13300    891.75458   -1680.9368   -1631.2561     3519.393    5128.2726    2.8722095    5149.9116    905.56555    24.867819   -1627.4847    2.8762367 
   13400    891.78761   -1680.0011   -1630.3187    2120.6573    5136.7316    2.8737878    5150.0767    904.60155   -75.387641   -1627.5829    2.8762676 
   13500    898.55617   -1678.8883   -1628.8288   -5464.3362    5169.1227    2.8798157    5149.6745    904.28635   -9.8061016   -1627.6405    2.8761928 
   13600    914.61619   -1677.9838   -1627.0295    8110.8183    5122.1482    2.8710656    5149.6467    904.32094   -6.0954749   -1627.6485    2.8761876 
   13700    936.70148   -1677.7848   -1625.6001   -3008.8234    5161.8969    2.8784732    5149.9467    904.53793   -88.409786   -1627.6113    2.8762435 
   13800    936.62906    -1677.026   -1624.8453   -5858.6941    5174.0035    2.8807218    5149.5701     905.0757    33.484735   -1627.5459    2.8761734 
   13900    931.67784   -1676.5059   -1624.6011    12695.845    5109.1274    2.8686308    5149.9716    905.84077   -39.527011   -1627.4724     2.876248 
   14000    935.77605   -1677.1134   -1624.9802   -12564.523    5197.2747    2.8850342    5150.3226    906.17098   -90.522757    -1627.406     2.876313 
   14100     908.0186   -1676.2407    -1625.654   -146.98232    5155.9213     2.877362    5149.8294    906.73284    71.442329    -1627.354     2.876221 
   14200    923.92497   -1677.5519    -1626.079    11060.807    5109.0517    2.8686166    5150.4775    907.07596   -83.799797   -1627.3172    2.8763413 
   14300    928.15783   -1678.3895   -1626.6808   -14650.672    5203.8198    2.8862448     5150.355    907.30005   -42.871456   -1627.2962    2.8763182 
   14400    924.18359   -1679.0341   -1627.5468    6544.9949    5127.4928    2.8720639    5150.0605    907.30394    41.432768   -1627.2929    2.8762632 
   14500    889.57225   -1677.9393   -1628.3802    2681.9075     5136.331    2.8737131    5150.5407    907.08635   -80.921685   -1627.3074    2.8763526 
   14600    868.23099   -1677.3686   -1628.9985   -10476.953    5183.9678    2.8825699    5150.1888    907.04983    2.5028941    -1627.337     2.876287 
   14700    921.22894   -1680.9601   -1629.6374    8939.2221    5115.7306    2.8698661    5150.1286    906.56414    6.4302943   -1627.3802    2.8762757 
   14800    838.53033   -1677.0538   -1630.3384   -250.33161    5149.4892     2.876165     5150.327    905.96714   -70.012285   -1627.4348    2.8763127 
   14900    897.22379   -1680.7457   -1630.7603   -8083.1218    5171.4085    2.8802401    5149.8934    905.66402    18.188731   -1627.4979     2.876232 
   15000     883.1375   -1680.4002   -1631.1997    8056.2131    5119.5741    2.8705846     5149.947    904.91532   -10.371773   -1627.5681     2.876242 
   15100    892.66058   -1681.4765   -1631.7454    -4573.667    5157.0401    2.8775701    5149.9807    904.31458   -47.960091   -1627.6451    2.8762483 
   15200    845.26943   -1678.9489    -1631.858   -2159.4528    5151.0321    2.8764522    5149.6486    903.83923    7.1024674   -1627.7253    2.8761866 
   15300     909.4263   -1682.0715   -1631.4063    5966.3781    5120.2069    2.8707029    5149.5835    903.08921   -19.843293   -1627.8003    2.8761746 
   15400    836.29101   -1676.9956   -1630.4049   -1887.4214    5157.6634     2.877686    5149.5041    902.53889   -32.981016   -1627.8589    2.8761598 
   15500    903.72446   -1679.2496   -1628.9021   -2711.3005    5149.3773    2.8761441    5149.2898    902.41663    8.8906816   -1627.8914    2.8761201 
   15600    933.07712   -1679.2925   -1627.3097    3938.4733    5135.8221    2.8736182    5149.3685    902.41404   -22.597387   -1627.8949    2.8761348 
   15700     900.6748   -1676.2774   -1626.0998   -3033.1184    5162.2751    2.8785435    5149.4183    902.39834   -33.693604   -1627.8737    2.8761442 
   15800    913.72704   -1676.1696   -1625.2649   -2284.9383    5156.8019    2.8775258    5149.3364    902.88257  -0.85653725   -1627.8348    2.8761291 
   15900    963.18583    -1678.499   -1624.8388    2870.8085    5138.7222     2.874159     5149.481    903.16975    -23.66612   -1627.7872    2.8761561 
   16000    927.11164   -1676.6336   -1624.9831   -3893.1164    5167.6185    2.8795363    5149.5437    903.54292   -29.108365   -1627.7388    2.8761678 
   16100    912.21078   -1676.4765   -1625.6562   -2914.9083     5156.859    2.8775364    5149.5337    903.84156   -1.8984372   -1627.6983    2.8761661 
   16200    920.58509   -1678.3438    -1627.057    4038.0765     5133.655     2.873214    5149.5865    904.01387   -16.161451   -1627.6755     2.876176 
   16300    887.84165   -1678.8637    -1629.401   -2797.4875    5155.3523    2.8772561    5149.5951    903.81998   -32.301551   -1627.6839    2.8761777 
   16400    849.56805   -1678.8099   -1631.4795   -262.47722    5143.9802     2.875139    5149.3307    903.47353    8.6807934   -1627.7282    2.8761285 
   16500    862.83907   -1680.3407    -1632.271    8437.7249    5111.2498    2.8690279    5149.3519    902.88368   -35.107797   -1627.7935    2.8761325 
   16600    837.67674   -1678.8935   -1632.2256   -9372.9818    5179.3838      2.88172    5149.1502    902.20976     -19.3901   -1627.8623    2.8760949 
   16700    909.87346   -1682.4858   -1631.7958    5543.5748    5116.4863    2.8700074    5148.8609    901.81286    23.564765   -1627.9248    2.8760409 
   16800    872.83615     -1679.67   -1631.0433    3093.9561    5133.3693    2.8731607    5149.0604    901.29378   -55.443385    -1627.976     2.876078 
   16900    866.85489   -1678.2392   -1629.9457   -10842.452     5185.587      2.88287    5148.7768    901.09029    6.3569597   -1628.0124    2.8760251 
   17000    894.42495   -1678.7665    -1628.937    12037.288    5106.0312    2.8680512    5148.7512    900.81685    6.7654701   -1628.0332    2.8760203 
   17100    867.66512   -1676.5362   -1628.1976    -4160.891    5160.8595    2.8782803    5148.9067    900.81508   -46.329217   -1628.0404    2.8760492 
   17200     889.0415   -1677.0953   -1627.5658   -7266.3177     5168.487    2.8796976    5148.6337      900.855    21.082283   -1628.0374    2.8759983 
   17300    892.97268   -1676.8365    -1627.088    7466.7908    5120.5095    2.8707594    5148.7785     900.8931   -14.232565   -1628.0273    2.8760253 
   17400    950.37076   -1679.8963   -1626.9501   -8682.2402    5177.6019    2.8813894    5148.8631    900.96647   -26.322593   -1628.0137    2.8760411 
   17500    927.10785    -1678.662   -1627.0118   -533.42094    5152.9198    2.8768035    5148.7306    901.15961    21.324361   -1627.9996    2.8760164 
   17600    905.84168   -1677.5597   -1627.0942    5089.1821    5127.8235    2.8721256    5148.9358    901.24285   -27.788919   -1627.9868    2.8760546 
   17700    874.34007   -1676.0664    -1627.356   -6378.9748    5177.3094    2.8813352    5148.8785    901.37329    -11.62531    -1627.977     2.876044 
   17800    883.59113   -1676.8703   -1627.6445    2969.7145     5136.847    2.8738093     5148.842    901.44529    4.2398941    -1627.971    2.8760372 
   17900    933.15008   -1679.8086   -1627.8218    1431.7667    5146.4912    2.8756067    5148.9374    901.46075   -20.823486   -1627.9682    2.8760551 
   18000    902.18326   -1678.2202   -1627.9585   -4191.8379    5158.9368    2.8779228    5148.9043    901.48152   -10.733258   -1627.9673     2.876049 
   18100    839.58728     -1674.85   -1628.0756    2512.1162    5143.7631    2.8750985    5148.8767     901.4029  -0.68559008   -1627.9679    2.8760439 
   18200    888.57488   -1677.6347   -1628.1312    1603.4239    5143.6979    2.8750863    5148.8936    901.40697   -9.7979651   -1627.9696    2.8760472 
   18300    902.72183   -1678.4674   -1628.1757   -3004.3297    5157.5422    2.8776635    5148.9171    901.35946   -13.887117   -1627.9718    2.8760516 
   18400    906.32936   -1678.7749   -1628.2823   -38.240865    5149.2394    2.8761185    5148.8504    901.41111    2.3090452   -1627.9748    2.8760393 
   18500    872.90484   -1677.0158   -1628.3853    2742.7426    5139.6413    2.8743303    5148.9327    901.38829   -19.275028    -1627.979    2.8760547 
   18600    893.92275   -1678.3408   -1628.5394   -5218.8298    5166.4344    2.8793163    5148.8799    901.36082   -6.5258439   -1627.9847    2.8760449 
   18700    905.59638   -1679.2827   -1628.8309    3978.6194    5129.9748    2.8725272    5148.8022    901.37704    0.1712377   -1627.9927    2.8760305 
   18800    949.62871   -1682.2483   -1629.3434   -445.06845    5143.4931    2.8750482    5148.8874    901.27376   -30.460393   -1628.0049    2.8760464 
   18900    845.06149   -1677.0156   -1629.9363   -4153.8226    5164.6634    2.8789873    5148.7606    901.16101   -2.9527764   -1628.0232    2.8760228 
   19000    937.86227   -1682.7885   -1630.5391    5075.7379    5120.0998    2.8706829    5148.7266    900.97123   -6.8059844    -1628.048    2.8760165 
   19100    822.38597   -1676.8775   -1631.0615   -1916.1447    5156.6731    2.8775018    5148.7523    900.62636   -26.685789   -1628.0787    2.8760213 
   19200    890.10725   -1680.7368   -1631.1479   -2445.3451    5148.4261     2.875967    5148.5658    900.33161    7.8253882   -1628.1116    2.8759866 
   19300    867.19099   -1678.9993   -1630.6872    7368.2905    5118.4598    2.8703763    5148.5434     900.0852   -12.101379   -1628.1423    2.8759825 
   19400    874.16829   -1678.4265   -1629.7256   -2954.2411    5157.1829    2.8775967    5148.5429    899.88081   -25.504094   -1628.1648    2.8759824 
   19500    880.36296   -1677.2553   -1628.2093   -3232.2338    5157.5492    2.8776648    5148.4056     899.8333    6.3945631   -1628.1733    2.8759569 
   19600    946.50289   -1679.2225   -1626.4918    4881.0428    5128.6256    2.8722754    5148.4542    900.00064   -11.786466   -1628.1644    2.8759659 
   19700    898.65206   -1675.4054   -1625.3405   -4309.6606    5162.6573    2.8786145    5148.5236    900.10892   -24.592682   -1628.1408    2.8759789 
   19800    988.15669   -1679.6918   -1624.6405   -5807.0088    5162.5574    2.8785959    5148.4666    900.43344   0.73305875    -1628.108    2.8759683 
   19900    1013.5839   -1680.9807   -1624.5128    827.21259    5144.0111    2.8751447    5148.5641    900.74102   -11.862964   -1628.0719    2.8759865 
Finished 900 K - next row contains averaged properties
   20000    951.47941   -1678.0175   -1625.0095   -3897.7777    5166.4697    2.8793229    5148.6033    900.98031   -8.8700359   -1628.0385    2.8759939 
Loop time of 6.0111 on 2 procs for 10000 steps with 432 atoms

Performance: 287.468 ns/day, 0.083 hours/ns, 1663.589 timesteps/s
99.6% CPU use with 2 MPI tasks x 1 OpenMP threads

MPI task timing breakdown:
Section |  min time  |  avg time  |  max time  |%varavg| %total
---------------------------------------------------------------
Pair    | 5.2489     | 5.2883     | 5.3278     |   1.7 | 87.98
Neigh   | 0.0030689  | 0.00308    | 0.0030911  |   0.0 |  0.05
Comm    | 0.34486    | 0.38602    | 0.42718    |   6.6 |  6.42
Output  | 0.030971   | 0.031208   | 0.031444   |   0.1 |  0.52
Modify  | 0.25797    | 0.25997    | 0.26197    |   0.4 |  4.32
Other   |            | 0.0425     |            |       |  0.71

Nlocal:    216 ave 221 max 211 min
Histogram: 1 0 0 0 0 0 0 0 0 1
Nghost:    1902 ave 1921 max 1883 min
Histogram: 1 0 0 0 0 0 0 0 0 1
Neighs:    14954 ave 15357 max 14551 min
Histogram: 1 0 0 0 0 0 0 0 0 1

Total # of neighbors = 29908
Ave neighs/atom = 69.2315
Neighbor list builds = 7
Dangerous builds = 0
System init for write_data ...
Setting up Verlet run ...
  Unit style    : metal
  Current step  : 0
  Time step     : 0.002
Per MPI rank memory allocation (min/avg/max) = 4.309 | 4.309 | 4.309 Mbytes
Step Temp PotEng TotEng Press Volume 
       0         1200   -1678.0175   -1611.1641   -1035.3832    5166.4697 
     100    1050.5032   -1668.4914   -1609.9667   -4322.7105    5194.7462 
     200    1139.8072   -1670.2504   -1606.7505   -94.966332    5181.0085 
     300    1077.1218   -1663.9871   -1603.9794   -2685.9526    5204.6584 
     400    1106.5912   -1663.3373   -1601.6879    2431.9716    5185.8507 
     500    1116.5552   -1661.3565    -1599.152   -1725.4233      5207.71 
     600    1150.0146   -1660.5175   -1596.4489     3168.237    5198.4836 
     700    1186.5908    -1660.002   -1593.8957   -2928.6908    5219.6918 
     800    1296.4562    -1663.826    -1591.599   -3676.2702    5214.7443 
     900    1276.5726     -1660.78   -1589.6607   -1458.5322    5211.8199 
    1000    1190.2877   -1654.5288   -1588.2165   -2020.5859    5236.4987 
    1100    1248.8621   -1656.7259   -1587.1504    6868.5233    5194.3146 
    1200     1243.682   -1655.8678   -1586.5809   -13383.225     5275.856 
    1300    1265.5301   -1657.0019   -1586.4978    14005.888    5168.6413 
    1400    1254.9856   -1657.3201   -1587.4035   -17729.116    5282.9368 
    1500    1242.2191   -1658.2645   -1589.0591    11892.593    5166.3564 
    1600    1158.3301   -1655.9298    -1591.398   -8209.3041    5262.4159 
    1700    1231.6282   -1662.0421   -1593.4267    9098.2945    5172.0265 
    1800    1110.2596    -1656.727   -1594.8732   -3527.9874    5237.6063 
    1900    1150.7597   -1659.4824   -1595.3723    4985.7108       5189.5 
    2000    1187.1817   -1661.3188   -1595.1796   -4250.9477    5223.1714 
    2100    1172.4185   -1659.7403   -1594.4236    2235.6742    5199.5641 
    2200    1130.0683    -1656.105   -1593.1476    2032.8362     5210.286 
    2300    1183.2582   -1657.3384   -1591.4177   -1794.9753    5220.7194 
    2400    1198.2829   -1656.2466   -1589.4889     3541.331    5208.1418 
    2500    1203.3604   -1654.7061   -1587.6656   -2157.1082    5238.9261 
    2600    1249.5069   -1656.1301   -1586.5187    7079.5146     5199.047 
    2700    1260.1221   -1656.5296   -1586.3267   -5879.2053    5247.6694 
[...]
    7300    1244.0064   -1659.4699    -1590.165    3322.4565    5197.7746 
    7400    1242.3842   -1657.4463   -1588.2317   -3451.6254    5234.9056 
    7500    1248.3446   -1654.9807   -1585.4341    4157.0351    5214.2662 
    7600    1268.5585   -1653.3325   -1582.6597   -2534.3245    5234.6742 
    7700    1311.9972   -1654.0064   -1580.9136   -1828.2406    5239.9524 
    7800    1324.0886   -1654.3217   -1580.5552    3465.9435    5222.3399 
    7900    1257.1918    -1651.724   -1581.6845    -5869.026     5256.641 
    8000    1278.4164   -1655.4996   -1584.2776    8951.9261    5192.0946 
    8100    1176.4817   -1652.7303   -1587.1872   -12277.755    5271.1677 
    8200     1142.829   -1652.1467   -1588.4784    14986.813    5165.0856 
    8300     1186.099   -1655.1567   -1589.0778    -15441.78    5282.9435 
    8400    1201.9113   -1656.5412   -1589.5813    19382.866    5149.3016 
    8500    1133.3137   -1653.4675   -1590.3293   -17028.168    5292.1086 
    8600    1262.0005   -1661.2851   -1590.9776    13256.805    5160.6984 
    8700    1189.5287   -1658.0208   -1591.7508    -7386.913     5245.022 
    8800    1196.8259   -1658.9402   -1592.2637   -19.212608    5207.2314 
    8900    1151.1774   -1656.7866   -1592.6532    4061.2338    5197.7025 
    9000    1203.5347   -1660.0178   -1592.9676   -4240.9203    5229.6216 
    9100    1134.0296   -1656.0888   -1592.9107    7086.2908    5193.6931 
    9200    1144.8444   -1656.2614   -1592.4808   -4475.5802    5236.1848 
    9300     1176.151   -1656.9507    -1591.426    7715.3299    5191.5802 
    9400    1193.8081   -1656.3418   -1589.8334   -5390.3318    5244.4711 
    9500    1282.7805   -1659.3006   -1587.8355    5075.9798    5202.5836 
    9600    1318.9887   -1659.5838   -1586.1015   -8476.0201    5243.0801 
    9700    1225.6725   -1653.2138   -1584.9302    5142.7848    5212.4134 
    9800    1203.3355   -1651.5994   -1584.5603   -2541.0095    5244.0316 
    9900      1221.81   -1653.0008   -1584.9324    1767.9211     5219.274 
   10000    1193.1242   -1653.2937   -1586.8234    3920.4409    5220.4871 
Loop time of 5.45377 on 2 procs for 10000 steps with 432 atoms

Performance: 316.845 ns/day, 0.076 hours/ns, 1833.594 timesteps/s
99.7% CPU use with 2 MPI tasks x 1 OpenMP threads

MPI task timing breakdown:
Section |  min time  |  avg time  |  max time  |%varavg| %total
---------------------------------------------------------------
Pair    | 4.8102     | 4.8202     | 4.8302     |   0.5 | 88.38
Neigh   | 0.076456   | 0.077394   | 0.078331   |   0.3 |  1.42
Comm    | 0.34207    | 0.35333    | 0.36458    |   1.9 |  6.48
Output  | 0.03035    | 0.030551   | 0.030752   |   0.1 |  0.56
Modify  | 0.13708    | 0.13881    | 0.14054    |   0.5 |  2.55
Other   |            | 0.03348    |            |       |  0.61

Nlocal:    216 ave 218 max 214 min
Histogram: 1 0 0 0 0 0 0 0 0 1
Nghost:    1817 ave 1837 max 1797 min
Histogram: 1 0 0 0 0 0 0 0 0 1
Neighs:    14824.5 ave 15061 max 14588 min
Histogram: 1 0 0 0 0 0 0 0 0 1

Total # of neighbors = 29649
Ave neighs/atom = 68.6319
Neighbor list builds = 175
Dangerous builds = 0
Setting up Verlet run ...
  Unit style    : metal
  Current step  : 10000
  Time step     : 0.002
Per MPI rank memory allocation (min/avg/max) = 4.309 | 4.309 | 4.309 Mbytes
Step Temp PotEng TotEng Press Volume v_my_lx f_1 f_2 f_3 f_4 f_5 
   10000    1193.1242   -1653.2937   -1586.8234    3920.4409    5220.4871    2.8893229            0            0            0            0            0 
   10100     1126.735   -1653.3021   -1590.5305    2011.8229    5224.0126    2.8899732    5211.9608    1228.5852     2456.117   -1588.5808    2.8877487 
   10200    1227.1018   -1661.7995   -1593.4363    3286.1758    5194.4944    2.8845196    5215.4744    1204.9304    501.77426   -1590.3773    2.8883966 
   10300    1143.3989   -1658.3548   -1594.6547   -7158.9179    5234.4238    2.8918918    5213.5213     1193.956    540.36668   -1591.6443    2.8880354 
   10400    1226.0585    -1663.123   -1594.8179    7291.6884    5174.1016      2.88074    5210.7788    1186.0896    646.69059   -1592.4384    2.8875275 
   10500    1190.0429    -1660.732   -1594.4334   -10529.319    5243.5387    2.8935694    5212.6203    1182.2282    -38.18426   -1592.8912    2.8878665 
   10600    1196.7874    -1660.224   -1593.5496      7200.17    5181.0679    2.8820322    5209.0108    1181.6905    808.07017   -1593.0785    2.8871984 
   10700    1187.9361   -1658.4057   -1592.2244    -6439.717     5242.189    2.8933211    5213.7602    1180.8796   -340.21566   -1593.0503    2.8880736 
   10800    1237.5214    -1659.578   -1590.6343    2674.7883    5203.6651    2.8862162    5209.6776    1184.4779    860.91705   -1592.8304    2.8873182 
   10900     1200.901   -1655.7528   -1588.8492   -411.50411    5223.6604    2.8899082    5215.4842     1185.534   -327.64446   -1592.4711    2.8883876 
   11000    1220.8677   -1655.2077   -1587.1917   -3574.2171    5236.4351    2.8922621    5212.6324      1190.46     604.5209   -1592.0064    2.8878608 
   11100    1165.0523   -1650.9789   -1586.0725    7954.6376     5197.382     2.885054     5216.827    1193.4216    -220.4754   -1591.5051    2.8886336 
   11200    1242.8145   -1654.6317   -1585.3931   -10444.632    5263.5317    2.8972423    5215.0488    1197.8929    446.73809   -1591.0125    2.8883052 
   11300    1256.7432   -1655.5043   -1585.4897    8960.3351    5185.2082    2.8827997    5217.7238    1200.2418    -46.33669   -1590.5794    2.8887981 
   11400    1195.9178   -1653.7072   -1587.0813   -9833.0629    5267.2572    2.8979257     5217.279    1203.4826    244.45118   -1590.2604    2.8887162 
   11500     1193.398   -1657.2976   -1590.8121    12659.749    5178.2138     2.881503     5218.081    1203.2243    91.905533   -1590.1723    2.8888642 
   11600    1134.2384   -1657.2435   -1594.0539    -3504.262    5229.5912    2.8910015    5217.6523    1201.8918    81.986574   -1590.3265    2.8887857 
   11700    1136.7172   -1658.8848    -1595.557    2102.3082    5195.5458    2.8847143    5216.9474    1200.1224    126.73298   -1590.5961    2.8886562 
   11800    1188.5874   -1662.3518   -1596.1342   -3404.9274    5218.3565    2.8889298    5216.6621    1197.5192    53.654233   -1590.8921    2.8886042 
   11900    1132.4175   -1659.0627   -1595.9744    4351.9652    5197.0751    2.8849973    5215.6611    1195.8217    161.72101   -1591.1664    2.8884199 
   12000    1154.7599   -1659.3886   -1595.0557    433.62076    5205.6044    2.8865747    5215.5967    1193.9924    31.984867   -1591.3867    2.8884086 
   12100    1205.3774   -1660.5779    -1593.425   -2936.9645    5219.0779    2.8890629    5214.8929    1192.8407    136.44835   -1591.5245    2.8882791 
   12200    1255.0631   -1661.1147   -1591.1937    1234.3866    5205.6172     2.886577    5215.1375    1192.8032    35.327383   -1591.5606    2.8883247 
   12300    1217.5216   -1656.9532   -1589.1237   -3663.4911      5238.74    2.8926864    5215.0402    1192.9994    103.37379   -1591.4988    2.8883071 
   12400    1228.9885   -1656.1323    -1587.664    3854.5527    5210.0176    2.8873902    5215.6306    1193.8094    51.261253   -1591.3672    2.8884164 
   12500    1259.9966   -1657.1823   -1586.9864   -6856.9762    5246.9202    2.8941913    5215.8962    1195.4176    82.558001   -1591.2034    2.8884657 
   12600    1229.2557   -1655.3793   -1586.8961    7548.1197    5199.1727    2.8853854     5216.196    1196.3558    89.623601   -1591.0384    2.8885213 
   12700    1246.9344   -1656.6858   -1587.2177   -8380.5983    5250.8399    2.8949118    5216.9676    1197.1287   -15.239422   -1590.8904    2.8886637 
   12800    1261.2222   -1658.0741     -1587.81     3739.098    5204.6702     2.886402    5216.5578    1198.4338    145.96761   -1590.7681    2.8885882 
   12900    1180.0913   -1654.6195   -1588.8753    538.21284    5223.4573    2.8898708    5217.4541    1198.8173   -49.777624   -1590.6829    2.8887536 
   13000    1224.4022   -1658.4194   -1590.2066   -2713.4665    5228.3372    2.8907704     5216.768    1199.5091    151.91362   -1590.6417     2.888627 
   13100    1204.7216    -1658.942   -1591.8256    4884.4544    5194.9327    2.8846008    5217.4675    1198.9772   -26.881303   -1590.6527    2.8887561 
   13200    1216.9316   -1661.9089   -1594.1123   -10326.248     5243.666    2.8935928    5216.7806    1198.7916    122.97832   -1590.7215    2.8886293 
   13300    1180.0976   -1663.3238   -1597.5793    9710.6305    5162.2089    2.8785312     5217.098    1197.2051   -25.030394   -1590.8749    2.8886878 
   13400    1062.1804   -1660.2571   -1601.0819   -9254.3005    5239.8739    2.8928951    5216.0477    1195.5619    97.350654     -1591.13    2.8884934 
   13500    1123.8773   -1664.5813   -1601.9688    12530.919    5148.0114    2.8758898     5215.783    1193.2918     25.87529    -1591.434    2.8884444 
   13600    1121.1631   -1663.8312     -1601.37   -13156.281    5245.8732    2.8939987     5215.194    1190.9304    43.821197   -1591.7228    2.8883354 
   13700    1141.3909   -1663.4937   -1599.9055     10466.68    5160.0713    2.8781338    5214.6767    1188.9964    82.482829    -1591.967    2.8882398 
   13800    1126.8964   -1660.7562   -1597.9755    -9250.618     5237.922    2.8925359    5214.5902    1187.6175    7.5059142   -1592.1522    2.8882238 
   13900    1151.7857    -1659.845   -1595.6777    8064.8034    5178.2578    2.8815111    5213.9448    1186.7588    103.99402   -1592.2721    2.8881046 
   14000    1242.8161   -1662.8007    -1593.562   -8161.3887    5237.1325    2.8923905     5214.311    1186.1355    -9.389735   -1592.3302    2.8881722 
   14100    1193.3915   -1658.2446   -1591.7594    4611.1257    5194.5303    2.8845263    5213.7529    1186.5218     109.6514   -1592.3366    2.8880692 
   14200    1165.0494   -1655.3151   -1590.4089   -3917.2024    5226.1263    2.8903629    5214.2897    1186.3631   -22.739478   -1592.3054    2.8881684 
   14300    1241.1188   -1658.5534   -1589.4093   -2067.0258    5221.1576    2.8894466    5213.7678    1187.3919    132.46241   -1592.2464     2.888072 
   14400    1214.3277   -1656.2683   -1588.6167    4492.3097    5210.7402    2.8875236    5214.5762    1187.9534    -31.71697   -1592.1708    2.8882211 
   14500    1193.7853   -1654.6455   -1588.1383   -4050.3045    5242.8882    2.8934497    5214.2183    1188.6209    108.25548   -1592.0843    2.8881551 
   14600    1181.4026   -1653.7933    -1587.976    9718.3664    5191.3442    2.8839364    5214.8543    1189.2823   -10.213764   -1591.9957    2.8882724 
   14700    1183.3111   -1654.1538   -1588.2302   -6291.0414    5257.2444    2.8960883    5214.6966    1189.9086    76.355943    -1591.912    2.8882434 
   14800     1321.235   -1662.7385    -1589.131    7771.0538    5182.2505    2.8822515    5215.0406    1190.3521    28.578329   -1591.8445    2.8883068 
   14900    1177.0238   -1656.6928   -1591.1195   -9052.3614    5258.8946    2.8963913    5215.1327    1190.6745     36.24022   -1591.8089    2.8883239 
   15000    1172.3015   -1659.0261   -1593.7159    9746.7581    5172.3576    2.8804163    5215.0054    1190.5471    59.184333   -1591.8223    2.8883003 
   15100    1164.7395   -1660.7735   -1595.8845   -9427.4603     5236.354    2.8922472    5215.1151    1189.9785   -3.3417968   -1591.8829    2.8883206 
   15200    1145.3999   -1660.7599   -1596.9483    3630.1913    5187.9919    2.8833155    5214.6489      1189.28    72.509947   -1591.9715    2.8882346 
   15300    1172.9671   -1662.5266   -1597.1793   -4215.7453    5215.2803     2.888362    5214.6995    1188.5703   0.73107437   -1592.0687    2.8882441 
   15400     1146.169   -1660.3289   -1596.4745   -497.63582     5204.575    2.8863844    5214.2525    1187.8385    69.589119   -1592.1577    2.8881616 
   15500    1139.7836   -1658.2424   -1594.7438    2658.4767    5199.4996    2.8854458    5214.3294    1187.3391    1.0175005   -1592.2218     2.888176 
   15600    1154.2361   -1656.4448    -1592.141   -1552.8199    5226.9014    2.8905058    5214.0543    1187.0893    64.476644   -1592.2436    2.8881253 
   15700    1179.9344   -1655.3826   -1589.6472    5469.4562    5199.6909    2.8854812    5214.2747    1187.4322    14.048819    -1592.218    2.8881661 
   15800    1188.0646   -1654.6862   -1588.4977   -4448.0648    5234.9155    2.8919823    5214.2623     1187.788    32.529974   -1592.1621    2.8881639 
   15900    1227.3746   -1656.5552   -1588.1767    1242.6269     5213.964     2.888119    5214.3781    1188.2757    39.810839   -1592.0964    2.8881855 
   16000    1246.4508   -1657.7674   -1588.3262    -747.9629    5224.4152    2.8900474    5214.5248    1188.9331    25.661341   -1592.0318    2.8882127 
   16100    1227.9153   -1657.2696    -1588.861    609.59826    5213.2706     2.887991    5214.5652     1189.505    35.477797   -1591.9749    2.8882203 
   16200    1210.6105   -1657.1795    -1589.735    -4700.386    5224.9598    2.8901479    5214.7084    1189.9214    15.794447   -1591.9314    2.8882469 
   16300    1196.4888   -1657.4335   -1590.7758    2112.3633    5209.3488    2.8872666    5214.6111    1190.0301    44.834291   -1591.9047    2.8882291 
   16400    1181.3062   -1657.6913   -1591.8794   -547.99619    5213.6668    2.8880641    5214.7308    1189.9556    8.2773152   -1591.8959    2.8882513 
   16500    1206.4705   -1660.2263   -1593.0125   -619.67833     5212.902    2.8879229    5214.5087    1190.0669    47.046688   -1591.9041    2.8882104 
   16600    1187.4933   -1660.3499   -1594.1933     228.0699    5209.7567     2.887342    5214.6535    1189.6783    5.4467479   -1591.9299    2.8882372 
   16700    1109.3749   -1657.3678   -1595.5633    1589.3798    5210.9913      2.88757    5214.3944    1189.4632    47.163518   -1591.9733    2.8881895 
   16800    1150.7041   -1661.1534   -1597.0464    1594.6631    5200.0519     2.885548     5214.515    1188.8612    -1.147601   -1592.0368    2.8882118 
   16900    1156.3422   -1663.0308   -1598.6097   -3939.9774    5213.2262    2.8879828    5214.1463    1188.2812    48.448146   -1592.1209    2.8881438 
   17000    1155.2406   -1664.0509   -1599.6911    4931.5326    5177.3795    2.8813482    5214.0891    1187.5583    4.2432415   -1592.2223    2.8881333 
   17100    1103.8208   -1661.4151     -1599.92   -7275.0951     5228.538    2.8908074    5213.7889    1186.7104    31.317088   -1592.3306    2.8880778 
   17200    1204.5392   -1665.7609   -1598.6546    6491.8235    5165.7309    2.8791857    5213.6025    1185.8402    26.819266   -1592.4298    2.8880434 
   17300    1122.1445   -1658.3294   -1595.8135   -8501.7116    5242.2773    2.8933373    5213.4595    1185.4137    19.887981   -1592.4971     2.888017 
   17400    1215.6995    -1660.412    -1592.684     11882.91    5165.5813    2.8791578    5213.2939    1185.2232     41.73467   -1592.5203    2.8879864 
   17500    1144.8263   -1654.5966   -1590.8171   -8580.2691    5256.7718    2.8960015    5213.4816    1185.2606   -7.5488759   -1592.5095     2.888021 
   17600    1243.6006   -1658.9103   -1589.6279    9218.9148    5180.8619    2.8819941    5213.2351    1185.5915    63.590704   -1592.4787    2.8879754 
   17700    1124.1449   -1651.6147   -1588.9873   -2448.4474    5242.3558    2.8933518    5213.6551    1185.7927   -29.326392   -1592.4369    2.8880528 
   17800     1196.385   -1655.1843   -1588.5323    2148.2747    5207.1849    2.8868668    5213.3071    1186.3304    77.776079   -1592.3877    2.8879884 
   17900     1255.309    -1658.377   -1588.4423   -965.75338    5218.6657    2.8889869    5213.8078    1186.6654   -32.959879   -1592.3366    2.8880807 
   18000     1202.594   -1655.6815   -1588.6836   -1963.2424    5230.1007    2.8910954    5213.4448    1187.1995    74.388184   -1592.2872    2.8880136 
   18100    1226.9665   -1657.7645   -1589.4088    3452.9357    5197.9332     2.885156    5213.9226    1187.3672   -26.891744   -1592.2456    2.8881017 
   18200    1175.4599   -1656.3463   -1590.8601   -9073.4045    5245.9904    2.8940203    5213.6178    1187.7711    57.934585   -1592.2182    2.8880453 
   18300    1237.6519   -1662.0695   -1593.1185    8230.5896    5172.8686    2.8805111    5213.8483    1187.7957   -7.8390907   -1592.2147    2.8880878 
   18400    1139.4985   -1659.0535   -1595.5708   -11295.976    5250.1473    2.8947845    5213.6451     1187.581     35.33759   -1592.2411    2.8880503 
   18500    1167.6426   -1662.2857    -1597.235    10091.591    5167.1247    2.8794446    5213.6236    1187.2864    18.079861   -1592.2917    2.8880463 
   18600    1138.0882   -1661.3559   -1597.9517   -8181.9962    5232.8092    2.8915944    5213.5501    1186.7337    11.815981   -1592.3548    2.8880327 
   18700    1164.5978   -1662.5676   -1597.6865    7407.7999     5185.232    2.8828041     5213.345    1186.2901    41.953607   -1592.4185    2.8879949 
   18800    1152.1649   -1660.6402   -1596.4518   -1905.1647      5214.21    2.8881644    5213.4223    1185.8418   -1.9061348   -1592.4722    2.8880092 
   18900    1204.5986   -1661.2906   -1594.1811   -2902.4307    5210.4562    2.8874712    5213.1739    1185.5526    47.748873   -1592.5043    2.8879634 
   19000    1196.0663   -1658.2175   -1591.5833    2067.3668     5205.985     2.886645    5213.3332    1185.5058    0.7194873   -1592.5077    2.8879929 
   19100     1193.492   -1656.6243   -1590.1335    -3210.165    5233.1294    2.8916534     5213.205    1185.6308    43.427075   -1592.4879    2.8879692 
   19200    1167.6358   -1654.6046   -1589.5543    5398.9878     5207.154    2.8868611    5213.4566    1185.8165    2.4666076   -1592.4585    2.8880157 
   19300    1224.6098   -1657.6017   -1589.3773   -4649.1069    5231.6044    2.8913725    5213.4107    1186.0017    30.928243   -1592.4258    2.8880073 
   19400    1234.2568   -1658.1233   -1589.3614    1297.9926    5211.7098    2.8877027    5213.5686    1186.3025    9.5411095   -1592.3931    2.8880366 
   19500    1237.8122   -1658.5231   -1589.5632   -6249.1772    5238.5785    2.8926567    5213.5711    1186.5081    32.105574   -1592.3623    2.8880371 
   19600    1257.4941   -1659.9718   -1589.9154    2885.3958    5197.2292    2.8850258    5213.6982    1186.8361    11.886799   -1592.3348    2.8880606 
   19700    1209.4499    -1657.917   -1590.5372   -6366.3558    5240.9837    2.8930993    5213.7125    1186.9684    17.459773   -1592.3132    2.8880633 
   19800    1179.4643   -1657.1281   -1591.4189    4486.4178    5197.4939    2.8850748    5213.6984    1187.0165    32.451221   -1592.2997    2.8880608 
   19900    1207.1991   -1659.7141   -1592.4597   -6486.4416     5229.801    2.8910402    5213.8182    1187.1131    3.1117064   -1592.2959     2.888083 
Finished 1200 K - next row contains averaged properties
   20000    1225.2495    -1662.006    -1593.746    296.63178    5202.8117    2.8860584    5213.6738    1187.0917    37.250616   -1592.3038    2.8880563 
Loop time of 6.1591 on 2 procs for 10000 steps with 432 atoms

Performance: 280.561 ns/day, 0.086 hours/ns, 1623.615 timesteps/s
99.6% CPU use with 2 MPI tasks x 1 OpenMP threads

MPI task timing breakdown:
Section |  min time  |  avg time  |  max time  |%varavg| %total
---------------------------------------------------------------
Pair    | 5.3648     | 5.3665     | 5.3683     |   0.1 | 87.13
Neigh   | 0.069328   | 0.07017    | 0.071013   |   0.3 |  1.14
Comm    | 0.39034    | 0.39096    | 0.39158    |   0.1 |  6.35
Output  | 0.030842   | 0.031082   | 0.031322   |   0.1 |  0.50
Modify  | 0.25904    | 0.26079    | 0.26254    |   0.3 |  4.23
Other   |            | 0.03956    |            |       |  0.64

Nlocal:    216 ave 222 max 210 min
Histogram: 1 0 0 0 0 0 0 0 0 1
Nghost:    1860.5 ave 1882 max 1839 min
Histogram: 1 0 0 0 0 0 0 0 0 1
Neighs:    14865 ave 15267 max 14463 min
Histogram: 1 0 0 0 0 0 0 0 0 1

Total # of neighbors = 29730
Ave neighs/atom = 68.8194
Neighbor list builds = 159
Dangerous builds = 0
System init for write_data ...
Total wall time: 0:00:44
