LAMMPS (7 Aug 2019)
OMP_NUM_THREADS environment is not set. Defaulting to 1 thread. (../comm.cpp:93)
  using 1 OpenMP thread(s) per MPI task
Reading data file ...
  orthogonal box = (0 0 0) to (17.1489 17.1318 17.1318)
  2 by 1 by 1 MPI processor grid
  reading atoms ...
  432 atoms
  read_data CPU = 0.000576973 secs
432 atoms in group iron
432 atoms in group Fe
Neighbor list info ...
  update every 1 steps, delay 10 steps, check yes
  max neighbors/atom: 2000, page size: 100000
  master list distance cutoff = 7.3
  ghost atom cutoff = 7.3
  binsize = 3.65, bins = 5 5 5
  1 neighbor lists, perpetual/occasional/extra = 1 0 0
  (1) pair eam/fs, perpetual
      attributes: half, newton on
      pair build: half/bin/atomonly/newton
      stencil: half/bin/3d/newton
      bin: standard
Setting up Verlet run ...
  Unit style    : metal
  Current step  : 0
  Time step     : 0.002
Per MPI rank memory allocation (min/avg/max) = 4.28 | 4.28 | 4.28 Mbytes
Step Temp PotEng TotEng Press Volume 
       0          300   -1733.6046   -1716.8913    1793.7425     5033.187 
     100     138.7774   -1724.0377   -1716.3063   -1581.2672    5041.6378 
     200    137.52646   -1723.1481   -1715.4863    771.87904    5036.1789 
     300    165.38268    -1723.638   -1714.4244    1313.5837     5035.486 
     400     195.4055   -1724.1124   -1713.2262   -1888.0952     5044.119 
     500    188.48879   -1722.4021   -1711.9012    426.26694     5043.061 
     600    200.29407   -1721.6432   -1710.4846   -669.67999    5043.8416 
     700    213.28798   -1720.8658   -1708.9833   -2052.4114    5047.6719 
     800     219.4997   -1719.6826    -1707.454    687.94872    5044.1335 
     900    238.45783   -1719.1441   -1705.8594    4011.2952    5037.9669 
    1000    237.31044    -1717.517   -1704.2961    667.04219    5047.2202 
    1100    270.33016   -1717.8406   -1702.7802   -2534.7967    5058.4285 
    1200    298.56038   -1717.9173   -1701.2842   -4112.8797    5062.8249 
    1300    269.28924   -1714.9642   -1699.9618   -1221.1252    5058.6539 
    1400    307.76223   -1715.9061   -1698.7603    3414.2076    5044.4436 
    1500    323.70289   -1715.8532   -1697.8193    7255.2776    5037.7027 
    1600    272.91965    -1712.387   -1697.1823   -2218.6934    5062.7598 
    1700    353.96266   -1716.5325   -1696.8128   -6472.2523     5075.006 
    1800    329.69669   -1715.2744   -1696.9067    -2635.691     5065.962 
    1900    326.51012   -1715.5449   -1697.3547    1979.8117    5049.8848 
    2000    323.17462   -1716.0805   -1698.0761    5745.5286    5038.8841 
    2100    281.62806    -1714.673   -1698.9832    1657.8414    5050.9931 
    2200    329.59349   -1718.0895   -1699.7274   -5811.4006    5072.7009 
    2300    304.45658   -1717.3273   -1700.3657   -7035.3014    5075.1565 
    2400     272.5188   -1716.0301   -1700.8478    635.81987    5052.3728 
    2500    260.11833   -1715.5503   -1701.0588     5554.507    5037.2233 
    2600    270.08528   -1716.0668   -1701.0201     5423.291    5038.3053 
    2700    315.42733   -1718.3269   -1700.7541    935.10958    5051.6375 
    2800    294.91396   -1716.6698   -1700.2398   -5104.9793    5068.8546 
    2900    282.97467   -1715.3886   -1699.6238   -3080.2181    5062.9829 
    3000    307.72199   -1716.1224   -1698.9789    2087.2283     5050.828 
    3100    310.93722   -1715.7184   -1698.3958    1630.0108    5050.2967 
    3200    311.05252   -1715.3006   -1697.9715     1731.442    5050.2993 
    3300     316.9245   -1715.4212   -1697.7649   -271.93946    5055.5713 
    3400    317.82272   -1715.4862   -1697.7799   -2590.3403    5063.0527 
    3500    304.98062   -1715.0497   -1698.0589   -1778.8198    5060.6926 
    3600    319.42888   -1716.2999   -1698.5042    1564.6974    5050.1145 
    3700    299.78874   -1715.7657   -1699.0641    3517.4297    5044.7569 
    3800    290.24887   -1715.8031    -1699.633   -324.05356    5050.4845 
    3900    291.52823   -1716.3539   -1700.1125   -1306.7727    5058.6909 
    4000    273.40334   -1715.6898   -1700.4582   -3510.1664    5065.9611 
    4100    300.15697   -1717.3506   -1700.6285    266.83856    5053.5136 
    4200    292.59216   -1716.8961   -1700.5954    3438.7243    5042.3793 
    4300    292.41688    -1716.671   -1700.3801     1326.251    5046.6995 
    4400    295.98512   -1716.4759   -1699.9862    1296.1701    5051.6159 
    4500    310.78879   -1716.8179   -1699.5035   -2893.6577    5065.5106 
    4600    296.80322   -1715.5311   -1698.9959   -4807.8495    5069.6965 
    4700    309.69806   -1715.8194   -1698.5657   -303.44074    5055.1858 
    4800    326.49189   -1716.4091   -1698.2199    3989.6196    5041.8036 
    4900    316.67149   -1715.6881    -1698.046    4518.1146    5043.4617 
    5000    298.05473    -1714.691    -1698.086   -810.62139    5059.1758 
    5100    285.12948   -1714.1447   -1698.2598     -6710.17    5076.9445 
    5200    314.04099   -1716.1218   -1698.6262   -9867.8938    5085.0254 
    5300    308.74081   -1716.4261   -1699.2258    235.38054    5053.6889 
    5400    305.15031   -1716.5383    -1699.538     10938.24    5020.3917 
    5500    264.95983   -1714.7291   -1699.9678    8215.4014    5028.5713 
    5600    284.10908     -1716.09    -1700.262   -1343.2879    5056.7063 
    5700    289.99919   -1716.4915   -1700.3354   -6494.2469    5072.5784 
    5800    295.72299   -1716.7953   -1700.3202   -4748.8748    5067.2881 
    5900    305.69535   -1717.1687    -1700.138    2891.0336    5046.5002 
    6000    287.74784   -1715.7691   -1699.7383    3563.7606    5041.4442 
    6100    296.43186    -1715.761   -1699.2464    1838.4611    5048.4884 
    6200    312.86525   -1716.1715   -1698.7415   -2532.1576    5062.4053 
    6300     300.1465   -1715.1075    -1698.386   -3394.2919    5067.3213 
    6400    304.97213   -1715.2121   -1698.2217   -666.05004    5057.8553 
    6500    290.75591   -1714.4138   -1698.2154    1734.9865    5047.5669 
    6600    322.25631   -1716.3362   -1698.3829    3415.4932    5043.7081 
    6700    308.42425   -1716.0198   -1698.8372    148.46385    5054.6581 
    6800    289.99826   -1715.8355   -1699.6794   -2686.4327     5060.889 
    6900    287.60126   -1716.5228   -1700.5002   -1836.7893    5059.4875 
    7000    282.93252   -1716.5809   -1700.8184   -444.23835    5053.3497 
    7100    270.88122    -1715.877   -1700.7859    3043.2751    5045.2326 
    7200    305.56763   -1717.6181   -1700.5946    2567.7657    5044.7631 
    7300    288.25941   -1716.3366   -1700.2774   -1088.7771    5055.9489 
    7400    308.08143   -1716.9969   -1699.8333   -3761.3983    5063.3733 
    7500    293.25414   -1715.7353   -1699.3978    -1870.408    5061.0928 
    7600    289.79973   -1715.1837   -1699.0387    460.53589    5053.8957 
    7700    304.44187   -1715.7302   -1698.7694    5144.0227    5038.6785 
    7800    301.57468   -1715.4493   -1698.6482    3678.9539    5043.0022 
    7900      309.004   -1715.8193   -1698.6043   -3708.3489    5065.0716 
    8000    299.64653   -1715.3273   -1698.6336   -7522.2093    5080.2364 
    8100    293.66844   -1715.2759   -1698.9153   -3597.7939    5066.9352 
    8200    294.82372   -1715.9116   -1699.4866    4760.2007    5037.2046 
    8300    299.45554    -1717.093     -1700.41    9405.0776    5022.6051 
    8400    288.51818   -1717.1647    -1701.091    1038.5661    5047.3576 
    8500    278.09306   -1716.7049    -1701.212   -5665.4823    5070.5696 
    8600    282.59827   -1716.8217   -1701.0778   -5342.8956    5069.7364 
    8700    294.96953   -1717.1908   -1700.7577    558.15977      5049.77 
    8800    301.09958    -1717.022   -1700.2474    4689.3286    5037.1009 
    8900    305.35775   -1716.7709   -1699.7591    3640.8602     5041.666 
    9000    310.25323   -1716.6782   -1699.3937   -400.88773    5054.8551 
    9100    296.28381   -1715.6483    -1699.142   -2339.4409    5060.4524 
    9200      294.988   -1715.4205   -1698.9864   -1125.2762    5058.8497 
    9300    298.24174   -1715.5234    -1698.908   -986.32001     5056.898 
    9400    308.91223   -1716.1002   -1698.8903    756.09808    5051.2662 
    9500     308.8144   -1716.1484    -1698.944    2500.7546    5047.6508 
    9600    294.21706   -1715.4757   -1699.0846    876.29771    5051.0582 
    9700    305.98219    -1716.449   -1699.4024   -1863.1385    5058.4274 
    9800     303.5132   -1716.9554   -1700.0464   -419.69064    5054.8852 
    9900    290.41926    -1716.984   -1700.8044    564.57941    5050.6095 
   10000    295.04512   -1717.6827   -1701.2454    1735.9467    5045.2829 
Loop time of 4.61763 on 2 procs for 10000 steps with 432 atoms

Performance: 374.218 ns/day, 0.064 hours/ns, 2165.612 timesteps/s
99.7% CPU use with 2 MPI tasks x 1 OpenMP threads

MPI task timing breakdown:
Section |  min time  |  avg time  |  max time  |%varavg| %total
---------------------------------------------------------------
Pair    | 4.1836     | 4.2139     | 4.2442     |   1.5 | 91.26
Neigh   | 0.00043797 | 0.00043797 | 0.00043797 |   0.0 |  0.01
Comm    | 0.17281    | 0.20321    | 0.23362    |   6.7 |  4.40
Output  | 0.029333   | 0.029538   | 0.029742   |   0.1 |  0.64
Modify  | 0.13417    | 0.13468    | 0.13519    |   0.1 |  2.92
Other   |            | 0.03587    |            |       |  0.78

Nlocal:    216 ave 220 max 212 min
Histogram: 1 0 0 0 0 0 0 0 0 1
Nghost:    2041 ave 2050 max 2032 min
Histogram: 1 0 0 0 0 0 0 0 0 1
Neighs:    14945.5 ave 15113 max 14778 min
Histogram: 1 0 0 0 0 0 0 0 0 1

Total # of neighbors = 29891
Ave neighs/atom = 69.1921
Neighbor list builds = 1
Dangerous builds = 0
Setting up Verlet run ...
  Unit style    : metal
  Current step  : 10000
  Time step     : 0.002
Per MPI rank memory allocation (min/avg/max) = 4.28 | 4.28 | 4.28 Mbytes
Step Temp PotEng TotEng Press Volume v_my_lx f_1 f_2 f_3 f_4 f_5 
   10000    295.04512   -1717.6827   -1701.2454    1735.9467    5045.2829    2.8604431            0            0            0            0            0 
   10100    273.68558   -1716.5857   -1701.3383    1274.9401    5048.3787     2.861028    5052.0708    283.67602    86.747362   -1701.3195     2.861725 
   10200    274.86503   -1716.4487   -1701.1357   -1145.1935    5055.8296    2.8624348    5052.2117    283.37575    46.350565   -1701.2893    2.8617517 
   10300    301.75191   -1717.5001   -1700.6891   -951.50732    5056.9562    2.8626475    5052.3175    284.26243    -34.16418   -1701.1694    2.8617717 
   10400    283.20567   -1715.9085   -1700.1308   -406.42533     5055.667    2.8624042    5052.5761    285.73201    -52.87923   -1700.9791    2.8618205 
   10500    294.07235   -1716.0744   -1699.6913    221.03102    5052.3308    2.8617744    5052.7526    287.73077   -46.972098   -1700.7616    2.8618539 
   10600    304.22341   -1716.3799   -1699.4313    2111.7349    5046.2754    2.8606306    5052.9166    289.53927   -39.977095   -1700.5594    2.8618848 
   10700    310.95487   -1716.5996    -1699.276    2355.1612    5047.4104    2.8608451    5052.8086    290.80842    4.4764529   -1700.3866    2.8618644 
   10800    298.31681   -1715.8056    -1699.186   -495.21303    5054.3311     2.862152    5052.7783    292.06234    38.179877   -1700.2416    2.8618587 
   10900    286.72937   -1715.0855   -1699.1115   -1288.2874    5056.8502    2.8626274     5053.002     293.1286  -0.79017175   -1700.1194    2.8619009 
   11000    302.03901    -1715.895   -1699.0681   -435.25264    5055.6823     2.862407    5053.1118    294.18631   -10.101166   -1700.0158    2.8619216 
   11100    309.34877   -1716.2959   -1699.0617   -411.97792    5055.1508    2.8623067    5053.2547    294.81766   -10.204717   -1699.9292    2.8619486 
   11200    288.43504   -1715.1789   -1699.1099    239.89317    5053.5049    2.8619961    5053.3243     295.2899   -19.399992   -1699.8586    2.8619618 
   11300    287.64032   -1715.2604   -1699.2356    888.82076    5051.9984    2.8617116    5053.3149    295.82457   -3.4890025   -1699.8051      2.86196 
   11400    289.56257   -1715.6307   -1699.4988   -893.71206    5054.8539    2.8622507    5053.3992    296.16801   -3.1589072   -1699.7729    2.8619759 
   11500    307.43956   -1717.0312   -1699.9033   -722.18221    5054.8281    2.8622458    5053.4336    296.17096   -22.418006   -1699.7675    2.8619824 
   11600    307.11043   -1717.4445    -1700.335    1672.9275    5047.8313    2.8609246    5053.4235     295.9499   -18.019804   -1699.7899    2.8619805 
   11700    287.67371   -1716.6996    -1700.673    2828.3459     5046.764     2.860723    5053.3385    295.52532    7.4580031   -1699.8329    2.8619645 
   11800    288.92603   -1716.9361   -1700.8397   -1375.0491    5056.3315    2.8625296    5053.2794    295.08406    14.959045   -1699.8851    2.8619533 
   11900    283.48411   -1716.5668   -1700.7736   -2386.6741    5061.7502    2.8635518    5053.3298     294.7278   -4.4161693   -1699.9345    2.8619628 
   12000     295.8767    -1716.925   -1700.4414   -1956.8951    5060.5992    2.8633347    5053.4277    294.34384   -26.417288   -1699.9695    2.8619812 
   12100     284.2528   -1715.6146   -1699.7785    1724.7519    5049.8989    2.8613152    5053.4239    294.29827   -25.954933    -1699.977    2.8619805 
   12200    311.70181   -1716.4196   -1699.0543    3751.5189    5041.4816    2.8597245    5053.4139    294.46284   -4.4099018   -1699.9508    2.8619786 
   12300    298.53261   -1715.2642   -1698.6326    2351.4289    5047.2313    2.8608112    5053.4229    294.96797    15.087088   -1699.9013    2.8619802 
   12400    295.86878   -1714.9536   -1698.4704   -838.08414    5058.7359    2.8629832    5053.4979    295.44079    15.402957   -1699.8441    2.8619944 
   12500    328.58117   -1716.7637   -1698.4581   -4619.7094    5068.7993    2.8648804    5053.6176    295.94103   -6.3105807   -1699.7885    2.8620169 
   12600    303.38606   -1715.4861   -1698.5841   -2508.6968    5063.8961    2.8639564    5053.7355    296.30882   -23.197821   -1699.7397    2.8620391 
   12700    304.84976   -1715.8008   -1698.8173    2219.0268     5047.229    2.8608108    5053.8047    296.61669   -31.018982   -1699.7009    2.8620522 
   12800    296.15122   -1715.5951   -1699.0962    6561.8682    5034.3628    2.8583778    5053.7526    296.93003   -4.5493065   -1699.6742    2.8620423 
   12900    298.89927   -1716.1425   -1699.4905    2500.3934    5046.5408    2.8606808    5053.6927    297.02981    21.395827    -1699.661    2.8620309 
   13000     293.9743    -1716.256   -1699.8784   -4700.8731    5068.8458    2.8648892     5053.716    296.96011    14.968696   -1699.6616    2.8620353 
   13100    285.59554   -1716.1905   -1700.2797   -6934.6307    5076.4253    2.8663164    5053.8228    296.84299   -15.195937   -1699.6754    2.8620553 
   13200     295.4493    -1717.221   -1700.7612   -1744.4721    5058.5778    2.8629534    5053.8647    296.58492   -34.192302   -1699.7019    2.8620632 
   13300    285.74254    -1717.182    -1701.263    5113.2369    5036.6387    2.8588085    5053.8123    296.29979   -24.129736   -1699.7411    2.8620532 
   13400    273.29751   -1717.0779   -1701.8522    7792.9631    5029.7965    2.8575134    5053.6855    295.79907    6.1936164   -1699.7948    2.8620292 
   13500    279.77917   -1717.9777   -1702.3909    867.49334    5048.5641     2.861063    5053.5571    295.20989    22.178973    -1699.862    2.8620049 
   13600    265.85413   -1717.3357   -1702.5246   -4328.4628    5063.5646    2.8638939    5053.5345     294.6075    11.255082   -1699.9348    2.8620006 
   13700    282.35588   -1717.9059   -1702.1755    -3112.147    5061.0748    2.8634244    5053.5296    294.03431    -8.025438   -1700.0013    2.8619997 
   13800    265.36318   -1716.0709   -1701.2872   -660.52344    5054.2492    2.8621366    5053.5095    293.61745   -14.612032   -1700.0475    2.8619959 
   13900    280.14944   -1716.1151   -1700.5077     2133.469    5047.8875    2.8609352    5053.4544    293.44128   -5.9362507   -1700.0682    2.8619855 
   14000    292.38218   -1716.3724   -1700.0835    658.88838     5051.617    2.8616396    5053.4199    293.37768    -2.164286   -1700.0734     2.861979 
   14100    296.19998    -1716.232   -1699.7304   -935.30977    5055.0154    2.8622812    5053.3922    293.44001   0.97581717   -1700.0693    2.8619738 
   14200    310.58811   -1716.6807   -1699.3775   -1713.9898    5057.2245    2.8626981    5053.4169    293.55888   -8.8795774   -1700.0569    2.8619785 
   14300    288.62603   -1715.1124   -1699.0327    1426.4937    5050.2694    2.8613851     5053.413      293.729   -8.0463201   -1700.0371    2.8619778 
   14400     308.2694   -1715.9066   -1698.7326    2606.6754    5046.1431    2.8606056     5053.383    293.94868  0.022573949   -1700.0107    2.8619721 
   14500    297.38504    -1715.084   -1698.5164   -193.85873    5054.2938     2.862145    5053.3789    294.19958    4.3377882   -1699.9797    2.8619713 
   14600    314.73345   -1715.9226   -1698.3884   -3405.9351    5063.5766    2.8638961    5053.4095    294.48829  -0.22773687   -1699.9462    2.8619771 
   14700    302.52999   -1715.2493    -1698.395   -2906.3199    5062.9222    2.8637728    5053.4407    294.80772   -8.3511172   -1699.9129     2.861983 
   14800    298.67598   -1715.2385    -1698.599   -647.32687    5057.3173    2.8627156    5053.4742    295.05333   -14.057614    -1699.883    2.8619894 
   14900    308.28662   -1716.1825   -1699.0075    1379.8887    5048.8067    2.8611089    5053.4657    295.20078   -8.5421058   -1699.8606    2.8619878 
   15000    295.52292   -1716.0935   -1699.6296    2192.3617    5045.1339    2.8604149    5053.4428    295.32089   -2.2749202   -1699.8497    2.8619835 
   15100    307.26708   -1717.3388   -1700.2206    994.90508    5049.0252    2.8611501    5053.4182     295.3276    1.3557257   -1699.8515    2.8619788 
   15200    291.88197   -1716.8292   -1700.5681   -1680.4596    5056.8356    2.8626247    5053.3999    295.22541   0.18124159   -1699.8625    2.8619754 
   15300    285.85869   -1716.5971   -1700.6716   -2912.0087     5060.472    2.8633107    5053.3899    295.11103   -5.8581441   -1699.8772    2.8619735 
   15400    293.10875   -1716.9148   -1700.5854     -1261.37    5054.7523    2.8622315    5053.3746    295.00382   -10.868507   -1699.8913    2.8619706 
   15500     279.5597   -1715.9079   -1700.3333    2450.7106    5044.3711    2.8602707    5053.3477    294.90985    -9.852692   -1699.9018    2.8619655 
   15600    301.77547   -1716.7938   -1699.9816    3591.0144    5042.7467    2.8599637     5053.297    294.86637   -1.5538224   -1699.9064     2.861956 
   15700    303.26761   -1716.5429   -1699.6475   -724.50672     5054.262     2.862139    5053.2569    294.89632    5.0531273   -1699.9047    2.8619484 
   15800    299.81899   -1716.1027   -1699.3994   -2815.7905    5063.2219    2.8638292     5053.257    294.94764    2.8938106   -1699.8978    2.8619484 
   15900    308.75744   -1716.4764   -1699.2751   -3854.1325    5065.5827    2.8642743    5053.2894    295.04076   -9.2529042   -1699.8882    2.8619545 
   16000    306.28228   -1716.3201   -1699.2568   -2013.9315     5058.124    2.8628678    5053.3103    295.14186   -17.512832   -1699.8777    2.8619585 
   16100    308.13233   -1716.3793   -1699.2129    3676.8313    5040.7671    2.8595894    5053.2884     295.2294   -12.307115   -1699.8671    2.8619543 
   16200    290.75747   -1715.3992   -1699.2008    5630.7729      5035.36    2.8585666    5053.2394    295.31927    1.8351812   -1699.8565     2.861945 
   16300    298.54455   -1715.8822   -1699.2499    2190.7154    5047.5044    2.8608628    5053.2143    295.40311    10.622924   -1699.8464    2.8619402 
   16400    296.98719   -1715.7918   -1699.2463   -4433.5857    5067.4246    2.8646214    5053.2384    295.48002    5.2639362   -1699.8369    2.8619448 
   16500    291.09092   -1715.4839   -1699.2669   -6499.6404    5074.4786      2.86595    5053.2867    295.54778   -7.0662086   -1699.8281    2.8619539 
   16600    294.61016   -1715.7786   -1699.3656   -1529.4465    5059.4023    2.8631089    5053.3189    295.59484   -16.474904   -1699.8204    2.8619599 
   16700    310.27818   -1716.7359   -1699.4499    4101.3845    5039.3436    2.8593202    5053.3017    295.64945   -11.447399    -1699.814    2.8619567 
   16800    292.59774   -1715.8877   -1699.5868    4867.4689    5037.3671    2.8589463    5053.2675    295.68814  -0.03365286   -1699.8097    2.8619502 
   16900    296.53515   -1716.3028   -1699.7825    59.801218    5051.9742    2.8617071    5053.2488    295.72188    4.7335063   -1699.8079    2.8619466 
   17000    289.92935    -1716.098   -1699.9457    -3119.302    5064.2014    2.8640139    5053.2562    295.69592    1.5069899   -1699.8087     2.861948 
   17100    295.43821   -1716.5319   -1700.0727   -2955.3188    5063.2117    2.8638273    5053.2749    295.66155   -8.0273051   -1699.8117    2.8619516 
   17200      280.158   -1715.7271   -1700.1191    340.97956    5050.8729    2.8614991    5053.2735    295.64641   -10.804466   -1699.8157    2.8619513 
   17300    297.90231   -1716.6072   -1700.0107    5247.7806    5036.5836    2.8587981    5053.2526    295.61836    -5.607324   -1699.8193    2.8619474 
   17400    307.27577   -1716.8746   -1699.7559    2952.5941    5043.2857    2.8600656     5053.211    295.60499    3.2668194   -1699.8204    2.8619395 
   17500    299.06871   -1715.9924    -1699.331   -1315.2902    5057.6168    2.8627721    5053.2032    295.63401    5.3013776   -1699.8168     2.861938 
   17600    301.71057   -1715.5941   -1698.7854   -4563.9508    5067.6527    2.8646644    5053.2253    295.72924   -1.7241219   -1699.8068    2.8619422 
   17700    303.02078    -1715.208   -1698.3264   -3026.4513    5064.2795    2.8640286    5053.2603    295.86533   -8.3910232   -1699.7904    2.8619488 
   17800    305.32328   -1715.0443   -1698.0344     1031.124     5052.277    2.8617642    5053.2811    296.01906   -9.5482107   -1699.7695    2.8619527 
   17900     309.3013   -1715.1649   -1697.9334    3266.2286    5045.2492    2.8604367    5053.2821    296.22356   -4.5308402   -1699.7467    2.8619529 
   18000     314.1832   -1715.5912   -1698.0877    1784.6531    5048.5458    2.8610596    5053.2684    296.42461    3.8781037   -1699.7247    2.8619503 
   18100    324.10722   -1716.5909   -1698.5345   -2232.2077    5060.1831    2.8632562    5053.2931    296.57721    1.7551215   -1699.7068     2.861955 
   18200     304.3667   -1716.3489   -1699.3923   -4346.7604    5064.5125    2.8640726     5053.323    296.66745   -5.2004779   -1699.6975    2.8619606 
   18300    290.53586    -1716.382   -1700.1959   -1136.1674    5055.0947    2.8622962    5053.3227    296.64137   -7.0318546   -1699.6992    2.8619606 
   18400    287.63655   -1716.5174   -1700.4929    1496.2854     5048.196    2.8609935    5053.2973    296.57289   -5.6324919   -1699.7073    2.8619558 
   18500    291.81654   -1716.7623   -1700.5049    2187.5817    5044.1452    2.8602281    5053.2706    296.49279    -3.563452   -1699.7168    2.8619508 
   18600      282.309   -1716.0939   -1700.3661    1998.4683    5045.2742    2.8604414    5053.2457    296.41869   -0.1979578   -1699.7253    2.8619461 
   18700    290.73403   -1716.2905   -1700.0934    453.48852    5050.9056    2.8615053    5053.2342    296.38438 -0.091829481   -1699.7311    2.8619439 
   18800     308.5615   -1716.9094   -1699.7191   -1396.3182    5056.7502    2.8626086    5053.2278    296.35015   -1.5632998   -1699.7332    2.8619427 
   18900    297.88552   -1715.8949   -1699.2993   -1351.9782    5056.7203    2.8626029    5053.2239    296.37547   -3.6716419   -1699.7306     2.861942 
   19000    304.50757   -1715.8852   -1698.9207   -1633.6836     5058.031    2.8628502    5053.2293    296.45565   -5.7440084   -1699.7236     2.861943 
   19100    317.81163   -1716.3433   -1698.6377    201.74931    5051.1553    2.8615524    5053.2338    296.54571   -7.9534675   -1699.7131    2.8619439 
   19200    323.87218   -1716.5056   -1698.4623     2265.901    5045.1478    2.8604175    5053.2248    296.65159    -5.345574   -1699.7004    2.8619422 
   19300    306.45082   -1715.5025   -1698.4298    2448.2172    5045.9023    2.8605601    5053.2041    296.76708  -0.81394767   -1699.6868    2.8619383 
   19400    296.60502   -1715.0915   -1698.5673    479.29376    5051.5511    2.8616272     5053.199    296.87328    1.0763858    -1699.674    2.8619373 
   19500    304.42269   -1715.9958   -1699.0361   -2691.5193     5060.966    2.8634039    5053.2034    296.97139  -0.19254069   -1699.6643    2.8619382 
   19600    296.33782   -1716.5133    -1700.004   -3036.8689    5060.9073    2.8633928    5053.2081    296.98256   -5.4273867   -1699.6626     2.861939 
   19700    282.44103   -1716.4992   -1700.7641    124.22785    5050.4994    2.8614286    5053.2046    296.91154   -9.5501059   -1699.6706    2.8619384 
   19800    288.49726   -1717.0699   -1700.9974    4840.8657    5036.0239    2.8586922    5053.1711    296.81122   -5.4352436   -1699.6833    2.8619321 
   19900    276.91718   -1716.3894   -1700.9621    4761.6878    5037.1368    2.8589028    5053.1334    296.69089    2.0034907   -1699.6966    2.8619249 
Finished 300 K - next row contains averaged properties
   20000    280.70556   -1716.3383   -1700.6999   -1604.9061    5057.0588    2.8626668    5053.1123    296.59942    3.9363331   -1699.7081    2.8619209 
Loop time of 5.62845 on 2 procs for 10000 steps with 432 atoms

Performance: 307.012 ns/day, 0.078 hours/ns, 1776.689 timesteps/s
99.6% CPU use with 2 MPI tasks x 1 OpenMP threads

MPI task timing breakdown:
Section |  min time  |  avg time  |  max time  |%varavg| %total
---------------------------------------------------------------
Pair    | 4.9652     | 5.0367     | 5.1082     |   3.2 | 89.49
Neigh   | 0.00042987 | 0.00043344 | 0.00043702 |   0.0 |  0.01
Comm    | 0.18538    | 0.25637    | 0.32735    |  14.0 |  4.55
Output  | 0.03119    | 0.031436   | 0.031682   |   0.1 |  0.56
Modify  | 0.26082    | 0.26158    | 0.26234    |   0.1 |  4.65
Other   |            | 0.04192    |            |       |  0.74

Nlocal:    216 ave 218 max 214 min
Histogram: 1 0 0 0 0 0 0 0 0 1
Nghost:    2041 ave 2046 max 2036 min
Histogram: 1 0 0 0 0 0 0 0 0 1
Neighs:    14967.5 ave 15275 max 14660 min
Histogram: 1 0 0 0 0 0 0 0 0 1

Total # of neighbors = 29935
Ave neighs/atom = 69.294
Neighbor list builds = 1
Dangerous builds = 0
System init for write_data ...
Setting up Verlet run ...
  Unit style    : metal
  Current step  : 0
  Time step     : 0.002
Per MPI rank memory allocation (min/avg/max) = 4.28 | 4.28 | 4.28 Mbytes
Step Temp PotEng TotEng Press Volume 
       0          600   -1716.3383   -1682.9116    2152.2078    5057.0588 
     100    428.63478   -1705.7819   -1681.9022    848.61082    5067.9395 
     200    445.74214   -1704.8867   -1680.0539    -3669.557    5085.1944 
     300    497.30943   -1706.0932   -1678.3875   -3277.1756    5088.3177 
     400    460.56854    -1702.025   -1676.3663      1794.18      5074.35 
     500    525.97952    -1703.477   -1674.1741    3562.0207    5066.4094 
     600    560.22614   -1703.2053   -1671.9945    3349.1834    5073.0382 
     700    556.81373   -1700.8901   -1669.8694   -4686.3824    5100.4911 
     800    569.16065   -1699.4805   -1667.7719   -9770.7028    5120.7335 
     900     611.2334   -1700.0101   -1665.9576   -3339.3514     5100.196 
    1000    626.34916   -1699.0053   -1664.1107    12126.725    5058.3378 
    1100    617.72752   -1697.1238   -1662.7096    10195.973    5063.0943 
    1200    606.48768   -1695.4997   -1661.7116   -4162.4777    5115.6105 
    1300    624.64779     -1695.65   -1660.8502   -11919.337    5144.0218 
    1400    622.22477   -1695.4651   -1660.8002   -3918.9262    5113.1179 
    1500    616.64493   -1695.4378   -1661.0838    8172.7319    5076.0959 
    1600    609.28664   -1695.8138   -1661.8698    11144.345    5063.0027 
    1700    613.77821    -1697.299   -1663.1048    149.29756    5098.0238 
    1800    584.61998   -1696.7898   -1664.2199   -6709.5522    5119.0139 
    1900    572.98831   -1697.2254   -1665.3036   -5092.1201    5111.6161 
    2000    564.85171   -1697.5715    -1666.103    3825.2822    5081.5315 
    2100    604.22555   -1700.2248   -1666.5627    5327.8718    5072.0297 
    2200    588.04451   -1699.5056    -1666.745    -354.3439    5091.5962 
    2300    587.12579   -1699.2202   -1666.5108   -6549.8724    5112.7702 
    2400    607.46214   -1699.7534    -1665.911   -5030.5282    5110.6744 
    2500    613.81191   -1699.1988   -1665.0026    2972.2511    5085.9201 
    2600    576.40954   -1696.0819   -1663.9695    6768.6261    5073.2274 
    2700    634.04712   -1698.4644   -1663.1409    311.48552    5094.8656 
    2800    618.69381   -1696.9625   -1662.4944    -6902.147    5119.8867 
    2900    581.32569   -1694.5519   -1662.1656   -5641.3507    5117.4369 
    3000    647.42607   -1698.1961   -1662.1272    999.90014    5090.5319 
    3100    613.21173   -1696.5534   -1662.3907    7326.4695     5073.804 
    3200    598.39329   -1696.5417   -1663.2045    2112.6318    5089.7219 
    3300     588.4132   -1697.2754   -1664.4943   -4926.5431    5112.5896 
    3400    579.26725   -1698.1118   -1665.8402   -6153.4584    5116.7021 
    3500    596.67937   -1699.9299   -1666.6882    200.20787    5089.7601 
    3600     590.8446   -1699.7643   -1666.8477    6642.7967    5069.1577 
    3700     615.1215   -1700.9562   -1666.6871    3527.5757    5080.2531 
    3800    606.37555   -1700.0104   -1666.2285   -3592.1205    5103.7493 
    3900    574.55608   -1697.6697   -1665.6605     -6366.65      5113.59 
    4000    600.62972    -1698.567   -1665.1052   -1106.3077    5096.6333 
    4100    589.63564   -1697.4339   -1664.5847    4515.0161    5081.3276 
    4200    636.04083   -1699.6528   -1664.2182    3160.7644    5084.3796 
    4300    595.39404   -1697.1533   -1663.9832    113.12758    5096.5692 
    4400    584.15065   -1696.3787    -1663.835   -2008.2524    5104.8165 
    4500    587.88211   -1696.5177   -1663.7661   -2830.4265    5103.1691 
    4600    608.24428   -1697.6614   -1663.7754    1980.3071    5093.4658 
    4700    606.85639   -1697.6499   -1663.8413    3639.7461    5083.5446 
    4800    622.22789   -1698.6458   -1663.9808    2424.4033    5087.0717 
    4900    626.22403    -1699.035   -1664.1473   -5602.7353    5113.1157 
    5000    580.50146   -1696.8658   -1664.5255   -8016.8903    5122.3799 
    5100    590.23785   -1698.5655   -1665.6827    -1873.427    5097.0164 
    5200    586.86253   -1699.7966   -1667.1018    8928.4364    5061.7085 
    5300    573.18504   -1700.0264   -1668.0936    9206.0065    5061.9259 
    5400    565.95332   -1700.0207   -1668.4908   -2767.7576    5097.9282 
    5500    535.77371   -1697.8793   -1668.0307   -11121.091    5128.9677 
    5600    541.17425   -1697.3735   -1667.2241   -4942.3063    5109.9517 
    5700    581.57297   -1698.3218   -1665.9217    7889.0428    5071.0227 
    5800    587.57564   -1697.4771   -1664.7426    10162.654     5062.871 
    5900    611.08064    -1698.146    -1664.102    435.82933    5093.4127 
    6000    617.68819   -1698.0201    -1663.608   -7549.9807     5120.684 
    6100    609.45035   -1697.3386   -1663.3854   -6586.6171    5118.4567 
    6200    644.44785    -1699.212    -1663.309    1326.3086    5089.1376 
    6300    588.03165   -1696.0867   -1663.3268    7170.4102    5077.3127 
    6400    590.42132   -1696.5129   -1663.6199    2421.2209    5089.3618 
    6500    596.12346   -1697.3667   -1664.1559   -4705.6257    5111.1319 
    6600    569.23426   -1696.8699   -1665.1572    -4191.409    5109.1675 
    6700     548.9445   -1697.1255   -1666.5432    1261.2361    5091.6102 
    6800    570.44584   -1699.3658   -1667.5856    4171.7537      5076.58 
    6900    576.98082   -1700.2006   -1668.0564    2885.7746    5080.6978 
    7000    563.17684   -1699.3246   -1667.9494    -3026.599    5100.3841 
    7100    591.46219   -1700.2217   -1667.2706   -7255.1984    5113.5694 
    7200    561.37516   -1697.5027   -1666.2279   -1942.7154    5101.2095 
    7300    576.02342   -1697.2478   -1665.1569    5807.5573    5076.4411 
    7400    565.54452   -1696.0376   -1664.5305    8397.3186    5068.9683 
    7500    558.83938   -1695.4587   -1664.3251    1784.3618     5096.108 
    7600    595.35271   -1697.2617   -1664.0939   -7212.3501    5121.1505 
    7700    609.60561   -1697.9506   -1663.9888    -4541.748    5107.5797 
    7800    616.50022   -1698.2339    -1663.888    3241.4873    5082.6934 
    7900    599.51024   -1697.1882   -1663.7888    5754.6069    5073.8562 
    8000    580.07698   -1696.1217   -1663.8049    368.46465    5094.3841 
    8100    608.02208   -1697.6927   -1663.8191   -4769.9434    5114.8093 
    8200    574.35951   -1695.9633   -1663.9651   -3014.2639    5105.0686 
    8300    586.62302   -1696.9024   -1664.2209    1943.9176     5086.691 
    8400    600.23921   -1698.0689   -1664.6289    4964.1986     5080.481 
    8500     585.2044   -1697.8111   -1665.2087    1091.2605    5089.5298 
    8600    574.78874   -1697.8429   -1665.8208   -3489.3237     5101.506 
    8700    573.78906   -1698.2929   -1666.3264   -1856.1795    5099.2486 
    8800    576.70658   -1698.7761   -1666.6471    205.04815    5089.1868 
    8900    573.40864    -1698.579   -1666.6338    2385.4661    5082.9122 
    9000    583.86327   -1698.7094   -1666.1817     1584.613    5087.8769 
    9100    575.27164   -1697.1665   -1665.1175   -965.82965    5098.8767 
    9200    618.73446   -1698.1504     -1663.68   -3264.8532    5106.6651 
    9300    607.34611   -1696.4295   -1662.5936    118.47949    5098.9471 
    9400    607.05417   -1695.8774   -1662.0577    5986.8373    5078.4904 
    9500    616.33161   -1696.3141   -1661.9776    6669.1559    5077.3202 
    9600    630.49612   -1697.3897    -1662.264   -1401.2961    5099.6608 
    9700    585.99324   -1695.3664     -1662.72    -7596.734    5122.8021 
    9800    618.05607   -1697.9153   -1663.4827   -2702.3321    5103.4014 
    9900    604.03448   -1697.9012   -1664.2498    6215.0286    5073.3289 
   10000    566.28751   -1696.4808   -1664.9323    9380.2362    5064.1944 
Loop time of 5.03135 on 2 procs for 10000 steps with 432 atoms

Performance: 343.447 ns/day, 0.070 hours/ns, 1987.538 timesteps/s
99.6% CPU use with 2 MPI tasks x 1 OpenMP threads

MPI task timing breakdown:
Section |  min time  |  avg time  |  max time  |%varavg| %total
---------------------------------------------------------------
Pair    | 4.6194     | 4.6287     | 4.638      |   0.4 | 92.00
Neigh   | 0.00042796 | 0.00043201 | 0.00043607 |   0.0 |  0.01
Comm    | 0.18931    | 0.19907    | 0.20882    |   2.2 |  3.96
Output  | 0.029831   | 0.030016   | 0.030202   |   0.1 |  0.60
Modify  | 0.13661    | 0.13669    | 0.13677    |   0.0 |  2.72
Other   |            | 0.03643    |            |       |  0.72

Nlocal:    216 ave 220 max 212 min
Histogram: 1 0 0 0 0 0 0 0 0 1
Nghost:    1992 ave 1994 max 1990 min
Histogram: 1 0 0 0 0 0 0 0 0 1
Neighs:    15189 ave 15351 max 15027 min
Histogram: 1 0 0 0 0 0 0 0 0 1

Total # of neighbors = 30378
Ave neighs/atom = 70.3194
Neighbor list builds = 1
Dangerous builds = 0
Setting up Verlet run ...
  Unit style    : metal
  Current step  : 10000
  Time step     : 0.002
Per MPI rank memory allocation (min/avg/max) = 4.28 | 4.28 | 4.28 Mbytes
Step Temp PotEng TotEng Press Volume v_my_lx f_1 f_2 f_3 f_4 f_5 
   10000    566.28751   -1696.4808   -1664.9323    9380.2362    5064.1944    2.8640126            0            0            0            0            0 
   10100    595.81694   -1698.7493   -1665.5557   -353.87754    5091.1862    2.8690919    5099.0965    589.22443   -1619.0162   -1665.2505    2.8705705 
   10200     602.7282   -1699.3055   -1665.7268    -11194.57    5127.6352    2.8759225    5093.9686    587.91091   -266.81796   -1665.4499     2.869606 
   10300    590.99807    -1698.707   -1665.7818   -10959.765    5127.9847    2.8759878    5090.8611    587.96212      695.245   -1665.5728    2.8690223 
   10400    591.76239   -1698.6171   -1665.6493    4265.7751    5082.4549    2.8674508    5090.7379    587.96122     809.0433   -1665.6028     2.868998 
   10500    584.39487   -1697.0987   -1664.5415    14118.701    5046.1299    2.8606031     5092.832     588.3314    176.24418   -1665.5261    2.8693906 
   10600    638.55164   -1697.5125   -1661.9381    5569.3178    5081.7302    2.8673145    5094.6657    590.94366   -215.95795   -1665.1643    2.8697346 
   10700    631.19923   -1695.4942   -1660.3293   -6496.6226    5121.6662    2.8748061    5094.9566    596.42452   -56.348155     -1664.56    2.8697895 
   10800    607.40317   -1693.8312   -1659.9921   -5411.1343    5119.5879    2.8744172    5095.0562    601.26215    157.74394   -1664.0024    2.8698092 
   10900    646.79361   -1696.3993   -1660.3657    85.507291    5101.3169    2.8709937    5095.6264    604.93898    187.40246   -1663.5713    2.8699171 
   11000    614.01997   -1695.5089   -1661.3012     4120.347    5085.9112    2.8681007    5096.3569    607.08582    126.50546   -1663.2935    2.8700548 
   11100    598.00307   -1695.9184    -1662.603    3975.2213    5086.7464    2.8682577     5096.813    608.39658    18.939871   -1663.1717    2.8701411 
   11200    599.81464   -1697.2437   -1663.8274    576.60648    5095.4089    2.8698849    5096.8982    608.28176   -10.631725    -1663.177    2.8701576 
   11300    600.67326   -1698.1943   -1664.7301    -2774.484    5107.4257    2.8721392    5096.7372    607.69793     19.24898   -1663.2635    2.8701278 
   11400    575.66366   -1697.4426   -1665.3717   -3142.8918    5104.0098    2.8714988      5096.38    606.49939    88.235251   -1663.3931    2.8700611 
   11500    567.41381   -1697.3932   -1665.7819    1365.2103    5088.6146    2.8686088    5096.1279    605.33068    104.54352   -1663.5396    2.8700141 
   11600    569.80519   -1697.6554   -1665.9109    5192.8434    5077.1687    2.8664563    5096.2139    604.05169    36.522361   -1663.6854    2.8700305 
   11700    581.87102   -1698.2465   -1665.8298     2109.476    5086.1646    2.8681483    5096.2532    603.03924   -15.361949   -1663.8156    2.8700381 
   11800     608.8801    -1699.304   -1665.3826   -5116.4645    5109.7875    2.8725819    5096.1148    602.23765   -15.623704   -1663.9166    2.8700123 
   11900     596.0422   -1697.6871   -1664.4809   -5710.0158    5113.4591    2.8732697    5095.8266    601.52315    50.511846   -1663.9726    2.8699583 
   12000    603.90816   -1696.8528   -1663.2084   -1235.0463    5099.9721    2.8707414    5095.6896    601.84046    91.539667   -1663.9665    2.8699327 
   12100     602.2448   -1695.4818   -1661.9301    5431.5556    5081.1251    2.8672007    5095.8813    602.46687    64.511146   -1663.8977    2.8699688 
   12200    626.48782   -1696.1159   -1661.2136    5726.3745     5078.368     2.866682    5096.2765    603.34037   -13.626018   -1663.7902    2.8700431 
   12300    625.36462   -1695.9345   -1661.0947   -1790.3906    5105.1766    2.8717176    5096.5546    604.01609   -41.283427    -1663.673    2.8700952 
   12400    622.35467    -1695.986   -1661.3139   -8638.4236    5128.6682    2.8761156    5096.5636    605.05837    7.6903698   -1663.5687    2.8700969 
   12500    613.55254   -1696.1139   -1661.9322    -6644.037    5120.3988     2.874569    5096.4368    605.66194    85.746194   -1663.4911    2.8700731 
   12600    619.22211   -1697.0509   -1662.5533    6380.6767    5077.1314    2.8664493    5096.4307    606.02748    101.12498   -1663.4422    2.8700718 
   12700    608.62133   -1696.8286   -1662.9216     13851.63    5052.4581    2.8617984    5096.8084    606.16351    9.5751158   -1663.4185    2.8701425 
   12800     602.3447   -1697.0123    -1663.455    2321.5499    5085.1225    2.8679524    5097.0367    606.11624   -70.178192   -1663.4107    2.8701851 
   12900    610.41542   -1697.6042   -1663.5973   -12954.447    5140.7365    2.8783698    5096.8624    606.21934   -23.951778   -1663.4136    2.8701519 
   13000    625.41636   -1698.7331   -1663.8904   -12304.954    5135.9443    2.8774751    5096.4653     606.0752    84.983123   -1663.4273    2.8700771 
   13100    605.04654   -1697.9589   -1664.2511    3025.3813    5083.2028    2.8675915    5096.3523    605.84927    108.08319   -1663.4471    2.8700556 
   13200    615.15617   -1698.6458   -1664.3747    10345.484    5062.7256    2.8637357    5096.5781    605.58791    32.245748   -1663.4742    2.8700979 
   13300    590.51543   -1697.5956   -1664.6973    3892.8606    5082.0267    2.8673703    5096.7325    605.37372   -19.629678   -1663.5069     2.870127 
   13400    602.45049   -1698.4731   -1664.9099   -3784.8809    5108.6986    2.8723778    5096.5891    605.07268     2.245657   -1663.5443    2.8701001 
   13500    591.44813    -1698.131   -1665.1807   -5153.4427    5111.4753    2.8728981    5096.4392    604.66009    36.477429   -1663.5872    2.8700721 
   13600    597.28373   -1698.8576   -1665.5822   -177.46281    5096.2391    2.8700408    5096.3647    604.27105    48.945495   -1663.6369    2.8700582 
   13700    586.40513   -1698.6549   -1665.9857    4266.5329    5081.2417    2.8672227    5096.3368    603.80586    37.735694   -1663.6949    2.8700531 
   13800    601.57621   -1699.8144   -1666.2999    3013.7244    5081.2012     2.867215    5096.3187    603.28128      16.8344   -1663.7599    2.8700499 
   13900    602.87952   -1699.9865   -1666.3994   -1687.2997    5094.5543    2.8697245    5096.2566    602.70498    3.0712528   -1663.8269    2.8700383 
   14000    572.26974   -1698.0221   -1666.1403   -4772.4441    5109.6331    2.8725529    5096.1406    602.17858    15.166319   -1663.8889    2.8700166 
   14100    569.96667   -1697.2396   -1665.4861   -1955.8211    5102.1194    2.8711442    5095.9591    601.87576     41.85104   -1663.9366    2.8699826 
   14200     592.3215    -1697.457   -1664.4581    3500.9245    5082.1672    2.8673967    5095.9365    601.56573     38.78523   -1663.9616    2.8699785 
   14300    617.14143    -1697.731   -1663.3493    5504.4165    5078.8237    2.8667678    5096.0208      601.584    7.5151392     -1663.96    2.8699944 
   14400    615.51125   -1696.8439   -1662.5531   -1701.6658    5099.3091     2.870617    5096.0797    601.83195   -8.4625556   -1663.9361    2.8700055 
   14500    612.21497   -1696.1497   -1662.0425    -7361.079    5123.1119    2.8750766    5096.0372    602.11557    17.113211   -1663.8989    2.8699976 
   14600     646.0441   -1697.9199    -1661.928   -3637.3227     5106.539     2.871973    5095.9886    602.52631    43.081573   -1663.8569    2.8699885 
   14700    632.10631   -1697.3095   -1662.0941    3338.7697    5083.3859    2.8676259    5096.0594    602.80204    35.678428   -1663.8169    2.8700018 
   14800     593.0762   -1695.7235   -1662.6826    6583.9436    5078.5067    2.8667081    5096.1547    603.01173    6.3220281   -1663.7866    2.8700198 
   14900    604.54491    -1697.548   -1663.8681   -564.76794      5095.14    2.8698344    5096.1809    603.13318   -7.3421304   -1663.7748    2.8700248 
   15000    571.09552   -1697.3499   -1665.5335   -3273.7642    5108.4376    2.8723289    5096.0849    603.00107    6.4127093   -1663.7928    2.8700068 
   15100    575.13507   -1698.8292   -1666.7878    -4649.454     5107.363    2.8721275    5095.9263    602.59088    29.905885   -1663.8412    2.8699771 
   15200    555.04635   -1698.0967   -1667.1744    2752.7623    5080.9681    2.8671712    5095.7528    602.05296    47.874006   -1663.9025    2.8699445 
   15300    583.96001   -1699.4639   -1666.9308    8847.5094    5058.8903    2.8630123    5095.7193    601.53329    22.775553   -1663.9626    2.8699382 
   15400    578.32164    -1698.767   -1666.5481    5422.0206    5072.2201    2.8655248     5095.739    601.09413   -16.367987   -1664.0147    2.8699419 
   15500    591.25297   -1698.7992   -1665.8598   -6931.7303    5115.0673    2.8735709    5095.6532    600.77275    -18.13908   -1664.0541    2.8699257 
   15600    613.06463   -1699.0845     -1664.93   -13697.584     5134.227    2.8771543     5095.446    600.52354    25.718827   -1664.0788    2.8698867 
   15700    580.11862   -1696.5952   -1664.2761    -2154.577     5103.802    2.8714598    5095.2593    600.45232    64.540025   -1664.0877    2.8698515 
   15800    595.00986   -1696.6068   -1663.4581    10058.932    5058.8719    2.8630089    5095.2935    600.46599    47.174712   -1664.0827    2.8698578 
   15900    630.69093   -1698.0859   -1662.9494     11677.72    5059.2885    2.8630875     5095.463    600.54999   -1.9336676   -1664.0684    2.8698895 
   16000    605.55984   -1696.5035   -1662.7671   -2295.0439    5104.0959    2.8715149    5095.5053     600.6792   -12.105218   -1664.0476    2.8698974 
   16100     621.7506   -1697.2709   -1662.6324    -9031.713    5124.6299    2.8753605    5095.4275    600.90047    15.332425    -1664.025    2.8698828 
   16200    607.94034   -1696.7361    -1662.867   -4487.8211    5108.8774    2.8724113      5095.34    601.07321    41.053358   -1664.0043    2.8698664 
   16300    614.08354   -1697.5601   -1663.3488    3737.7261    5081.3694    2.8672467    5095.3733    601.23573     35.42745   -1663.9892    2.8698727 
   16400    592.89904   -1697.6154   -1664.5844    5839.5099    5072.2458    2.8655296    5095.4476     601.2149    9.2217781   -1663.9878    2.8698866 
   16500    592.78284   -1699.6578   -1666.6332   -764.78551    5094.0245     2.869625    5095.4378    601.01426   0.55356918   -1664.0129    2.8698848 
   16600    571.51536   -1699.6314   -1667.7917   -4622.1703    5108.6357     2.872366    5095.3187    600.57787    15.190556   -1664.0631    2.8698625 
   16700      569.337   -1699.7744    -1668.056   -1890.1532    5094.6942    2.8697507     5095.182    600.13208    31.724367   -1664.1216    2.8698369 
   16800    557.26382   -1698.7613   -1667.7155    4391.4779    5074.7809    2.8660069    5095.1179    599.69927    24.922122   -1664.1774    2.8698249 
   16900    580.95273    -1699.367   -1667.0014    3295.6084    5078.4092    2.8666898    5095.1362    599.28741    3.6443262    -1664.224    2.8698284 
   17000    592.12823   -1699.0031    -1666.015   -2718.7847       5102.7    2.8712531    5095.1097    598.99423    1.9551633   -1664.2567    2.8698235 
   17100    558.47194   -1696.1006   -1664.9875   -4461.3401    5111.6661    2.8729339    5095.0212    598.86639    17.583313    -1664.274    2.8698069 
   17200    545.85122   -1694.6361   -1664.2262    975.84737     5093.553    2.8695364    5094.9831    598.79643    27.663445   -1664.2783    2.8697998 
   17300    606.49435   -1697.4739   -1663.6854    4772.3177    5079.1915     2.866837    5094.9908     598.8456    20.512875   -1664.2735    2.8698013 
   17400    602.96998   -1696.9809   -1663.3888    3369.2818    5083.4321    2.8676346    5095.0428    598.91341    4.1365227   -1664.2635    2.8698111 
   17500    594.06452   -1696.3597   -1663.2637    -3325.637     5105.481    2.8717746    5095.0645    599.02083   -1.0756648   -1664.2507    2.8698152 
   17600    591.49868   -1696.1646   -1663.2115   -7008.2295    5122.0156    2.8748715    5094.9963    599.15571    17.338725   -1664.2374    2.8698024 
   17700    637.90686   -1698.9488   -1663.4103   -2645.7505    5101.7821     2.871081    5094.9189    599.27886    37.101647   -1664.2252    2.8697879 
   17800    620.94588   -1698.2549   -1663.6613    8376.6223     5069.114    2.8649397    5094.9557    599.31707    27.596837    -1664.216    2.8697948 
   17900    650.58911   -1700.6123   -1664.3673    5790.8803    5068.4123    2.8648075     5095.071    599.32457   -2.1599855   -1664.2133    2.8698164 
   18000    570.72202   -1697.5528   -1665.7573   -4539.3637    5109.6839    2.8725625    5095.0864    599.23013   -10.864463   -1664.2229    2.8698192 
   18100    597.54616   -1700.3845   -1667.0945   -11116.459    5130.6034    2.8764773    5094.9701    599.00756    15.308917   -1664.2508    2.8697974 
   18200    547.39316   -1698.5205   -1668.0246   -3287.8734    5101.1403    2.8709606    5094.8435    598.65127    41.395821    -1664.292    2.8697735 
   18300     589.2749   -1700.9157   -1668.0865    8570.7069     5059.425    2.8631132    5094.8178    598.23724    32.753487   -1664.3376    2.8697686 
   18400    589.00895   -1700.4659   -1667.6516    10799.302    5057.6176    2.8627722    5094.8784    597.87259    2.9316969   -1664.3807      2.86978 
   18500    583.08663   -1699.2916   -1666.8071    -612.6143    5096.4492    2.8700802    5094.8701     597.5925   -6.2837861   -1664.4144    2.8697784 
   18600    592.97917   -1698.6561   -1665.6206   -9206.5876    5120.2599    2.8745429     5094.793    597.44563    7.4387822   -1664.4351    2.8697639 
   18700    607.95815   -1698.6669   -1664.7969   -5907.2425    5113.6784    2.8733108    5094.7156    597.34327    27.855418   -1664.4438    2.8697494 
   18800    591.14771   -1697.2785    -1664.345    2172.1368    5089.6762    2.8688082    5094.6891    597.36523    31.900681   -1664.4447    2.8697444 
   18900    590.52889   -1696.9305   -1664.0315    7479.4713    5070.8982    2.8652758    5094.7334    597.37943     18.82171   -1664.4417    2.8697528 
   19000    612.70023   -1698.0403   -1663.9061    3148.3171    5086.3493     2.868183     5094.801    597.45278    3.4315584   -1664.4365    2.8697655 
   19100     602.9819   -1697.3852   -1663.7924   -1021.3744    5102.2256    2.8711641    5094.8111    597.51078    5.6694032   -1664.4299    2.8697674 
   19200     587.6269   -1696.4786   -1663.7412   -3934.7929     5109.907    2.8726043    5094.8017    597.54264    13.027541   -1664.4227    2.8697657 
   19300    614.26803   -1697.9982   -1663.7766   -3307.5511    5104.8869    2.8716632    5094.7711     597.6113     24.87355   -1664.4155      2.86976 
   19400    631.47761   -1699.0237   -1663.8434    3312.4509    5082.2037    2.8674036    5094.7836     597.7067    21.657221   -1664.4089    2.8697623 
   19500    584.53621    -1696.622   -1664.0568    3840.5843    5081.6365    2.8672969    5094.8406    597.73408    7.0189748    -1664.404    2.8697731 
   19600    618.11303   -1698.9653   -1664.5296   -3249.7657    5104.7306    2.8716339    5094.8499    597.74468    4.5130699   -1664.4026    2.8697749 
   19700    585.40023   -1697.8514   -1665.2381   -4935.0691    5110.8557     2.872782    5094.7939    597.71696    17.115212   -1664.4074    2.8697644 
   19800    603.36811   -1699.6801   -1666.0658    586.59188    5087.3849    2.8683777    5094.7532    597.63411    21.786764   -1664.4202    2.8697568 
   19900    582.41513   -1699.1404   -1666.6934    3697.9568    5079.4469     2.866885    5094.7608    597.43421    11.658597   -1664.4402    2.8697582 
Finished 600 K - next row contains averaged properties
   20000    588.71187   -1699.8298    -1667.032    -411.7099     5090.825    2.8690241    5094.7295    597.21269    8.4795851   -1664.4648    2.8697524 
Loop time of 5.79094 on 2 procs for 10000 steps with 432 atoms

Performance: 298.397 ns/day, 0.080 hours/ns, 1726.837 timesteps/s
99.7% CPU use with 2 MPI tasks x 1 OpenMP threads

MPI task timing breakdown:
Section |  min time  |  avg time  |  max time  |%varavg| %total
---------------------------------------------------------------
Pair    | 5.219      | 5.2242     | 5.2293     |   0.2 | 90.21
Neigh   | 0.00042105 | 0.00042999 | 0.00043893 |   0.0 |  0.01
Comm    | 0.22332    | 0.22829    | 0.23326    |   1.0 |  3.94
Output  | 0.030169   | 0.030412   | 0.030655   |   0.1 |  0.53
Modify  | 0.26404    | 0.26442    | 0.26479    |   0.1 |  4.57
Other   |            | 0.04323    |            |       |  0.75

Nlocal:    216 ave 219 max 213 min
Histogram: 1 0 0 0 0 0 0 0 0 1
Nghost:    1993 ave 2001 max 1985 min
Histogram: 1 0 0 0 0 0 0 0 0 1
Neighs:    15072.5 ave 15496 max 14649 min
Histogram: 1 0 0 0 0 0 0 0 0 1

Total # of neighbors = 30145
Ave neighs/atom = 69.7801
Neighbor list builds = 1
Dangerous builds = 0
System init for write_data ...
Setting up Verlet run ...
  Unit style    : metal
  Current step  : 0
  Time step     : 0.002
Per MPI rank memory allocation (min/avg/max) = 4.28 | 4.28 | 4.28 Mbytes
Step Temp PotEng TotEng Press Volume 
       0          900   -1699.8298   -1649.6898    3226.8992     5090.825 
     100    761.14316   -1690.8823   -1648.4782   -5067.7223    5134.4008 
     200    742.72717   -1687.1519   -1645.7737   -2683.0566    5131.4566 
     300    812.82414   -1688.8414    -1643.558    4872.4055    5105.2046 
     400    769.10527   -1684.0135   -1641.1658   -3767.8107    5147.0835 
     500    800.21585     -1683.04   -1638.4591     1155.551    5128.3347 
     600    853.32091   -1683.3025   -1635.7631    2923.5596    5125.6337 
     700    865.59828   -1681.3982   -1633.1747   -5555.0437    5162.1535 
     800    856.91247   -1678.6089   -1630.8693    1738.1799    5137.1634 
     900    910.73495   -1679.4853   -1628.7472    3771.8943     5131.976 
    1000    896.08691   -1676.8212   -1626.8992   -8927.6388      5184.77 
    1100    906.96353   -1676.1198   -1625.5918    9901.2752    5124.0109 
    1200    949.56355   -1677.7909   -1624.8897    1574.0501    5147.4029 
    1300    852.14358   -1671.7956   -1624.3217   -14174.262    5212.5633 
    1400    943.31351   -1676.9845   -1624.4314    18473.837    5094.5417 
    1500    884.99487   -1674.8113   -1625.5073    -3846.416    5171.2255 
    1600    923.12411   -1678.1738   -1626.7455   -8410.3334    5180.5919 
    1700    906.72082   -1678.5951   -1628.0806    13319.102    5103.2489 
    1800    902.95051   -1679.8908   -1629.5864   -6756.9772    5173.1162 
    1900    860.64227    -1678.609   -1630.6617   -3215.9464    5155.6899 
    2000    862.16085   -1679.2052   -1631.1732    10607.466    5108.4816 
    2100    844.48654   -1678.4557   -1631.4084   -7333.7433    5169.5409 
    2200     912.3331   -1682.0398   -1631.2127    783.73204    5139.0946 
    2300    902.40934   -1680.6289   -1630.3546    3787.9156     5127.429 
    2400    861.22474   -1676.7829   -1628.8031    -7271.701    5176.5971 
    2500    913.95526   -1677.6869   -1626.7694    2685.4617    5140.6779 
    2600    951.39713   -1678.1499   -1625.1465   -947.84974    5155.5975 
    2700    966.08662   -1678.1504   -1624.3286   -1473.1588    5162.4226 
    2800    865.55968    -1672.518   -1624.2967    2919.2984    5146.7657 
    2900    922.04434   -1676.1268   -1624.7587   -2150.5239     5165.645 
    3000    881.92318   -1674.6598   -1625.5269     3702.515    5149.5421 
    3100    944.51657   -1679.0546   -1626.4346     4551.036    5136.4663 
    3200    914.58658   -1678.1155   -1627.1628   -9777.4856     5185.145 
    3300    930.05081   -1679.6002    -1627.786    5652.2911    5127.0651 
    3400    894.24146   -1678.0442    -1628.225    3043.4516    5139.3863 
    3500    860.37186   -1676.2815   -1628.3492   -10949.435    5191.7675 
    3600    912.02412   -1679.3009    -1628.491     11935.03    5107.1201 
    3700     905.0045   -1679.1909   -1628.7721   -1766.7401    5152.1271 
    3800    895.92973   -1678.5221   -1628.6089   -14185.498    5199.3022 
    3900    942.51652   -1680.9494   -1628.4407    17803.741     5085.107 
    4000    874.73323   -1677.4562   -1628.7238   -9391.0977    5178.5824 
    4100    866.37888    -1676.595    -1628.328   -8859.9992     5178.196 
    4200    902.74475   -1677.6385   -1627.3456    14696.768    5102.3217 
    4300    879.07621   -1675.1843     -1626.21   -5874.7858    5179.8417 
    4400    931.93106   -1676.8804   -1624.9615   -891.83597    5157.9195 
    4500    913.95292   -1674.9269   -1624.0096    6992.2035    5134.0761 
    4600    925.90477   -1675.2332     -1623.65   -7212.0861    5183.2516 
    4700    882.33283   -1673.2089   -1624.0531    2439.3011    5151.1682 
    4800      935.983   -1677.3399   -1625.1952    4397.9068    5138.1645 
    4900    923.86296   -1678.4899   -1627.0205   -10894.402    5184.1897 
    5000    877.88079   -1677.8684   -1628.9607    7441.4092    5121.4306 
    5100    912.01341    -1681.094   -1630.2847    1520.1202    5136.8102 
    5200    826.22435   -1676.7642   -1630.7343   -8307.3445     5178.593 
    5300    902.36176   -1681.0461   -1630.7745    8038.6618    5115.0286 
    5400    871.13359    -1679.078   -1630.5461   -435.17857    5143.5979 
    5500     891.7446    -1679.623   -1629.9429   -4123.8715    5160.7405 
    5600    887.80225    -1678.623   -1629.1625    7334.5982    5123.2516 
    5700    910.84968   -1679.0329   -1628.2885   -2123.0773    5150.4345 
    5800    914.15898    -1678.187   -1627.2581   -1907.6758    5162.6056 
    5900    945.91149    -1678.689   -1625.9912    3733.3331    5134.9633 
    6000    916.70308    -1675.093   -1624.0225   -3909.9748    5171.3347 
    6100    919.43682   -1672.2634   -1621.0406    1004.1267    5161.1593 
    6200    978.05296   -1673.5942   -1619.1057    2689.7626    5157.9013 
    6300    960.13211   -1672.5381   -1619.0481   -1416.3155    5171.3988 
    6400    969.31885   -1674.1871   -1620.1853    1775.2109    5159.7339 
    6500    948.78012   -1674.5809   -1621.7233    662.56876    5157.0726 
    6600    953.89952   -1676.3579    -1623.215   -1557.0955    5161.5745 
    6700    984.38873   -1679.4114     -1624.57   -652.63307    5152.7642 
    6800    915.38828   -1676.8825   -1625.8852   -355.81098    5158.9694 
    6900    934.08213   -1679.1828    -1627.144   -1440.7807    5154.5259 
    7000    924.24572   -1679.8313   -1628.3405    777.01935    5143.8901 
    7100    946.37796   -1682.1226   -1629.3988   -1465.8513    5148.9613 
    7200    910.93352    -1680.955   -1630.2059    650.35847    5142.0662 
    7300     876.6761   -1679.6025   -1630.7619    -817.8436    5148.8829 
    7400    909.84445   -1681.6281   -1630.9396   -1314.8765    5143.0417 
    7500    898.70282   -1680.8343   -1630.7666    187.80528    5143.7791 
    7600    892.33857    -1679.735   -1630.0218    902.86081    5147.0954 
    7700    875.01026   -1676.9608    -1628.213    1440.2223    5144.2719 
    7800    903.26733   -1676.0251   -1625.7031   -422.40392    5157.4607 
    7900    927.50475   -1675.6709   -1623.9986    2374.3134    5150.4661 
    8000    982.61192   -1678.1677   -1623.4253     -550.878    5156.7213 
    8100    909.24592   -1674.2571    -1623.602   -2288.5327    5167.4673 
    8200    874.92843   -1673.1679   -1624.4247    4554.9308    5142.4509 
    8300    932.70455   -1677.6995   -1625.7375   -1632.2773    5158.1572 
    8400    950.00569   -1680.0983   -1627.1724   -641.78494    5153.4283 
    8500    883.82134   -1677.6107    -1628.372    4232.1053    5135.1562 
    8600    906.22147   -1679.5722   -1629.0856   -4704.0287    5162.4185 
    8700    919.61055   -1680.6237   -1629.3911   -570.66458    5142.5626 
    8800    891.54143   -1679.0926   -1629.4238    4571.3784    5132.5841 
    8900    850.19599    -1676.668   -1629.3026   -4046.2133    5163.3018 
    9000     847.5473   -1676.2941   -1629.0763    2375.1305    5139.1041 
    9100    910.30157    -1679.462   -1628.7481    2283.4985    5137.4528 
    9200    900.30866   -1678.5252    -1628.368   -5397.4876    5168.7196 
    9300    929.56268   -1679.5999   -1627.8129    4339.4213    5132.7818 
    9400    913.97866   -1677.7395   -1626.8208   -786.96328    5151.6378 
    9500    913.19306   -1675.8166   -1624.9416   -6137.2856    5179.6675 
    9600    939.74179   -1675.1039   -1622.7498     6674.144    5132.5942 
    9700    977.33262   -1675.8987   -1621.4504   -2677.6921    5166.3549 
    9800    999.69219   -1676.9262   -1621.2322   -7089.3912    5181.5148 
    9900    986.30663   -1677.0112    -1622.063    7198.2569    5125.8872 
   10000    953.13301   -1677.1811    -1624.081    -7084.491    5180.4964 
Loop time of 5.16158 on 2 procs for 10000 steps with 432 atoms

Performance: 334.781 ns/day, 0.072 hours/ns, 1937.392 timesteps/s
99.7% CPU use with 2 MPI tasks x 1 OpenMP threads

MPI task timing breakdown:
Section |  min time  |  avg time  |  max time  |%varavg| %total
---------------------------------------------------------------
Pair    | 4.7161     | 4.7476     | 4.7792     |   1.4 | 91.98
Neigh   | 0.00039911 | 0.000422   | 0.00044489 |   0.0 |  0.01
Comm    | 0.17874    | 0.21059    | 0.24244    |   6.9 |  4.08
Output  | 0.029747   | 0.029929   | 0.030111   |   0.1 |  0.58
Modify  | 0.13685    | 0.13688    | 0.13691    |   0.0 |  2.65
Other   |            | 0.03614    |            |       |  0.70

Nlocal:    216 ave 227 max 205 min
Histogram: 1 0 0 0 0 0 0 0 0 1
Nghost:    1904 ave 1929 max 1879 min
Histogram: 1 0 0 0 0 0 0 0 0 1
Neighs:    14904 ave 15809 max 13999 min
Histogram: 1 0 0 0 0 0 0 0 0 1

Total # of neighbors = 29808
Ave neighs/atom = 69
Neighbor list builds = 1
Dangerous builds = 0
Setting up Verlet run ...
  Unit style    : metal
  Current step  : 10000
  Time step     : 0.002
Per MPI rank memory allocation (min/avg/max) = 4.281 | 4.281 | 4.281 Mbytes
Step Temp PotEng TotEng Press Volume v_my_lx f_1 f_2 f_3 f_4 f_5 
   10000    953.13301   -1677.1811    -1624.081    -7084.491    5180.4964    2.8857714            0            0            0            0            0 
   10100    903.19945   -1676.5634   -1626.2452    337.01307    5154.0131    2.8808455    5139.7326    928.19173    3916.1189    -1625.193    2.8781788 
   10200    945.85108   -1680.1606   -1627.4661    5988.9522    5125.8149    2.8755821    5151.7953     919.4635    145.08701    -1626.063     2.880427 
   10300    897.03842   -1678.0733   -1628.0983   -10998.628    5185.0987    2.8866257    5149.2371    914.24608    591.92111   -1626.6548    2.8799492 
   10400    923.66117   -1680.0114   -1628.5532    5337.7279    5128.1767    2.8760237    5146.7837    910.17862    1025.4499   -1627.0796    2.8794909 
   10500     921.6786   -1680.1795   -1628.8317    1592.8242    5137.1596     2.877702      5150.38      906.099   -145.34208   -1627.3978    2.8801616 
   10600    872.28183   -1677.4918    -1628.896   -10298.998    5187.1299    2.8870026    5147.7938    904.79797    483.33445   -1627.6432    2.8796788 
   10700    903.93904   -1679.3243   -1628.9648    9974.8433    5109.9855     2.872619    5147.4803    903.33202    473.45799   -1627.8336    2.8796195 
   10800    880.77536   -1678.1085   -1629.0395   -2352.4894    5154.6694    2.8809678    5149.1966    901.57019   -77.561686   -1627.9809    2.8799395 
   10900    855.88021   -1676.4847   -1628.8026    -6610.119    5170.9339    2.8839947     5147.137     901.2508    443.07737   -1628.0827    2.8795555 
   11000    899.19993   -1678.3859   -1628.2904    7709.8036     5119.865    2.8744691    5148.1284    900.24339    182.91182    -1628.132    2.8797405 
   11100    917.10193   -1678.6389   -1627.5461   -5197.4219    5166.6353    2.8831954    5148.2672    900.86249    114.09872   -1628.1156    2.8797667 
   11200    914.76531   -1677.4112   -1626.4486    1663.7355    5146.8069    2.8795023    5147.8655    902.14852    242.95097   -1628.0237    2.8796924 
   11300    879.83082   -1674.2795   -1625.2631     3704.132    5144.0832    2.8789942    5148.6163     903.2696    93.189884   -1627.8569    2.8798328 
   11400      896.721    -1674.218   -1624.2607   -3177.6679     5163.246    2.8825648    5148.8483    904.99495    108.09774   -1627.6337    2.8798765 
   11500    940.00619    -1676.011   -1623.6422    1010.0363    5157.1951    2.8814383    5148.9537    906.72672    199.06378   -1627.3849    2.8798965 
   11600    953.34147   -1676.6433   -1623.5316    1687.9418    5143.0109    2.8787942    5149.9385     908.6929    55.598384   -1627.1438    2.8800803 
   11700    946.35524   -1677.0075    -1624.285   -7287.4386    5178.0989    2.8853262    5149.9785    910.20728    124.24269   -1626.9487    2.8800879 
   11800    947.10329   -1678.9264   -1626.1623    4408.7099    5134.6053     2.877225    5149.9387    910.98746    176.94095   -1626.8488    2.8800805 
   11900    955.28912   -1681.7839   -1628.5637   -1541.7343    5144.6902    2.8791075    5150.5098    910.60105 -0.037504044   -1626.8774    2.8801872 
   12000    903.23075    -1680.465    -1630.145   -8041.2021    5161.2418    2.8821917     5149.547     909.9787    141.39918   -1627.0052    2.8800076 
   12100    877.05458    -1679.698   -1630.8363    6070.4544    5124.9392    2.8754184    5149.3304    908.45694    112.72036   -1627.1743    2.8799674 
   12200     887.9108    -1680.483   -1631.0165   -1542.9298    5148.1453    2.8797519    5149.4179    907.04589    6.8766092   -1627.3467    2.8799838 
   12300    872.36469   -1679.3339   -1630.7335   -5206.8175    5154.6411    2.8809625    5148.6655    905.75672    118.89002   -1627.5009    2.8798436 
   12400    880.65754   -1679.1908   -1630.1283    3636.5767    5131.3303    2.8766131    5148.6004    904.58938    85.066389   -1627.6243    2.8798316 
   12500    902.71588   -1679.5129   -1629.2215   -2738.8174    5154.6067    2.8809561    5148.6991    903.84239    26.888896   -1627.7073    2.8798501 
   12600    884.59702   -1677.3106   -1628.0287   -1001.2417    5158.4405    2.8816702    5148.3198    903.87845    117.93859   -1627.7426    2.8797795 
   12700    871.70224   -1675.1274   -1626.5639    6759.4746    5131.0285    2.8765567    5148.7528    903.68945    40.179054   -1627.7269    2.8798603 
   12800    814.45463   -1670.5033   -1625.1291   -1902.2606    5173.5744    2.8844855    5148.7897     904.0976    57.602532   -1627.6591    2.8798672 
   12900    913.78674   -1674.8321    -1623.924    4319.6234    5138.2867    2.8779125    5148.7751    905.10643    106.16818   -1627.5498    2.8798646 
   13000    972.96092   -1677.3756   -1623.1708   -1153.4941    5156.0261    2.8812205    5149.3863    906.14922   -4.7524698   -1627.4147    2.8799785 
   13100    995.90047   -1678.3054   -1622.8227   -7835.4675    5181.9481    2.8860409     5149.202    907.64504    101.46337   -1627.2703    2.8799441 
   13200    915.34029   -1674.3904   -1623.3958    11434.448     5115.653    2.8736806     5149.636    908.60291    60.530823   -1627.1376    2.8800248 
   13300    919.01365   -1676.7899   -1625.5907   -7489.9107     5180.164    2.8857097    5150.0429    909.25276   -22.518941   -1627.0554    2.8801005 
   13400    899.10418   -1678.1156   -1628.0255   -2875.5768    5154.1799    2.8808766    5149.4597    909.45575    139.60914    -1627.048    2.8799916 
   13500    882.24648   -1678.7021   -1629.5512    11352.975    5110.6109    2.8727362    5149.8133    908.65036    23.383125   -1627.0999    2.8800574 
   13600    870.27941   -1679.0783    -1630.594   -8506.3648    5179.3672    2.8855617    5149.6805    908.07344    19.471696   -1627.1845    2.8800325 
   13700    873.01897   -1679.8711   -1631.2343    2770.7918     5135.576    2.8774063    5149.2136    907.31062    115.36769   -1627.2863    2.8799454 
   13800    861.50641   -1679.2977   -1631.3022    6126.1871    5123.8902    2.8752221     5149.503     906.2433    1.2197152   -1627.3917    2.8799993 
   13900    866.17537   -1679.2023   -1630.9467   -8898.1418    5179.3417     2.885557    5149.1692    905.47412    56.590058   -1627.4887     2.879937 
   14000    914.50823   -1681.1093    -1630.161    5073.5088    5121.2503    2.8747283    5148.9289    904.92378    89.909276   -1627.5666    2.8798921 
   14100    886.73033   -1678.3177    -1628.917     794.7254    5146.9516    2.8795293    5149.2332    904.41992   -12.029014   -1627.6149    2.8799489 
   14200    872.50323   -1675.8421    -1627.234   -7044.0004    5180.5598    2.8857832    5148.9473    904.47684    76.066285   -1627.6253    2.8798956 
   14300    964.33793   -1679.5213    -1625.797    7477.4795    5121.4475    2.8747652     5149.061    904.64638    62.278224   -1627.5993    2.8799167 
   14400    862.59685   -1673.0437   -1624.9875   -1554.9609    5165.7942    2.8830389    5149.3959    904.91261   0.99259432   -1627.5482    2.8799791 
   14500    946.83568   -1677.4166   -1624.6673   -5668.8669    5171.5382    2.8841071    5149.2099    905.58827    85.363122    -1627.486    2.8799445 
   14600    955.96898   -1678.0226   -1624.7645    7758.4793    5127.2704    2.8758543    5149.5264    905.96534    37.536069    -1627.425    2.8800034 
   14700    959.80395   -1679.0578   -1625.5861   -6210.7642     5170.584    2.8839297    5149.7422    906.30272    4.5804151   -1627.3764    2.8800437 
   14800    927.50279   -1678.8825   -1627.2103   -3856.2731    5158.3444    2.8816523    5149.5522     906.6789    73.049348    -1627.354    2.8800083 
   14900    879.69322   -1678.8174   -1629.8087    6490.7144    5125.1921    2.8754656    5149.6891    906.49364    27.894895   -1627.3764    2.8800339 
   15000    882.86089   -1681.2304   -1632.0452   -6100.0054    5158.6485    2.8817089    5149.6165    905.77461     12.60184   -1627.4503    2.8800204 
   15100    818.57616   -1678.3743   -1632.7705   -99.281927    5142.1545    2.8786344    5149.1983    905.11538    73.643771   -1627.5493    2.8799424 
   15200    905.37214   -1682.9801   -1632.5408    5570.1934    5118.3004    2.8741762     5149.234      904.239    16.006749   -1627.6483    2.8799491 
   15300    832.38519   -1678.2788   -1631.9057   -7251.5569    5166.9366    2.8832514    5149.0324    903.60792    24.225723   -1627.7355    2.8799115 
   15400    846.25834   -1678.0707   -1630.9247    1798.3791    5138.9054     2.878028    5148.7544    902.97299    70.775435    -1627.804    2.8798597 
   15500    925.39156   -1681.0953   -1629.5407    4235.9634    5128.1547    2.8760196    5148.8566    902.60895    15.062328   -1627.8481    2.8798788 
   15600    905.16922   -1678.5836   -1628.1556   -6301.1608    5171.5124    2.8841023    5148.7711    902.43888    29.697507   -1627.8659    2.8798629 
   15700    907.66504   -1677.5979   -1627.0308    4710.1451    5133.2392    2.8769698    5148.6261    902.55204    62.446238   -1627.8605    2.8798359 
   15800    925.77252   -1677.7837   -1626.2079    2050.6365    5143.5781       2.8789    5148.9503    902.58401   -4.9639185   -1627.8384    2.8798963 
   15900    888.04676   -1675.0731    -1625.599   -7441.0344    5180.5933    2.8857894    5148.8259    902.90619    41.398813    -1627.805    2.8798731 
   16000    941.48048   -1677.9156   -1625.4647    5199.1676    5133.5192    2.8770221    5148.8933    903.09318    50.881931   -1627.7668    2.8798856 
   16100    888.30497   -1675.3112   -1625.8228    1551.5741    5148.3171    2.8797839    5149.1404    903.49637   -3.3779454   -1627.7312    2.8799317 
   16200    908.74423   -1677.3667   -1626.7396   -6179.4199    5175.5127    2.8848457    5148.9822    903.71515    49.054498   -1627.7064    2.8799022 
   16300    837.24047   -1675.5024   -1628.8588    8839.8797    5121.8765    2.8748455    5149.0337    903.66176    40.256836   -1627.7065    2.8799118 
   16400    883.85624   -1680.8604   -1631.6198   -2742.9029    5155.4891    2.8811205    5149.1588    903.30379  0.033006714   -1627.7469    2.8799352 
   16500    854.44448   -1680.6197   -1633.0176   -3638.6275    5152.8746    2.8806334    5148.8983    902.76901    48.643122   -1627.8189    2.8798866 
   16600     893.5693   -1683.0017     -1633.22    6573.1953    5118.5156    2.8742165    5148.8745     902.0368    26.685577   -1627.9005    2.8798822 
   16700    868.90052   -1681.2341   -1632.8267   -5840.0048    5159.3589    2.8818412    5148.7955    901.39703     15.08444   -1627.9778    2.8798675 
   16800    847.20198   -1679.1206    -1631.922    3331.1257    5139.3245    2.8781062    5148.5683     900.9754    49.295512   -1628.0428    2.8798252 
   16900    885.60148   -1680.0241   -1630.6862    4781.3845    5128.1285    2.8760147     5148.691     900.5273    6.2910336   -1628.0903    2.8798481 
   17000    890.08552   -1678.9258   -1629.3381   -9707.5713    5182.4864    2.8861409      5148.62    900.34684    21.647409   -1628.1177    2.8798348 
   17100    887.88232   -1677.7538   -1628.2889    4766.1631    5130.8023    2.8765145    5148.4945    900.33319    60.550358   -1628.1272    2.8798114 
   17200    914.69103   -1678.4555    -1627.497    5994.7123    5133.0441    2.8769333    5148.7903    900.27751   -12.805587   -1628.1232    2.8798665 
   17300    926.07228    -1678.522   -1626.9294   -13405.966    5198.4061    2.8890931    5148.6922    900.42642    33.573486   -1628.1102    2.8798481 
   17400    922.14686   -1678.1493   -1626.7754    8615.8488    5120.6452    2.8746151    5148.7275    900.59874    48.623349   -1628.0933    2.8798546 
   17500    858.24844   -1674.7517   -1626.9377    424.72104    5156.1545    2.8812445    5149.0048    900.67288   -12.801463   -1628.0764    2.8799062 
   17600    866.05102   -1675.3527    -1627.104   -5673.7921    5175.9196    2.8849213    5148.7859    900.90037    50.519435   -1628.0619    2.8798654 
   17700    950.62864   -1680.3213   -1627.3607    8983.0828    5115.4474    2.8736421    5148.9123    900.92313    28.392093   -1628.0512    2.8798889 
   17800     895.6564    -1677.774    -1627.876   -4486.1261    5170.3535    2.8838868    5149.0277    900.98159    1.5578241   -1628.0458    2.8799104 
   17900    962.44504   -1682.0846   -1628.4657   -6090.8368    5162.1928    2.8823688    5148.8626    901.01894    52.290464   -1628.0472    2.8798796 
   18000    861.85804   -1677.1425   -1629.1274    9701.0405    5114.7741     2.873516    5148.9836    900.89566    18.768305   -1628.0563    2.8799021 
   18100    910.31365   -1681.5961   -1630.8815   -8417.1818    5171.2413    2.8840519    5148.9935    900.79567    6.6748895    -1628.079     2.879904 
   18200    873.56848   -1682.6445    -1633.977   -609.96489      5144.02    2.8789825    5148.7662    900.33914    51.534163   -1628.1319    2.8798616 
   18300    843.63078   -1682.7626    -1635.763    6277.8799    5113.9772    2.8733668    5148.7942    899.72909    12.120768   -1628.2151    2.8798668 
   18400    840.29211   -1682.9242   -1636.1106   -5439.7522    5160.6129    2.8820747    5148.6477     898.9931    17.140256   -1628.3082    2.8798395 
   18500    865.97959   -1683.6963   -1635.4516    2181.6712    5127.8608    2.8759647    5148.4418    898.31893    36.629474   -1628.3971    2.8798011 
   18600    844.14061   -1680.9855   -1633.9574    2615.6988    5136.3697    2.8775545    5148.4538    897.68568     7.575639   -1628.4711    2.8798034 
   18700    872.81999   -1680.6994   -1632.0736   -5019.1739    5164.8917     2.882871    5148.3263    897.27313    30.891817   -1628.5231    2.8797796 
   18800    935.69094   -1682.6188   -1630.4904    3786.6421    5126.7924    2.8757649    5148.3072    897.08142    25.048202   -1628.5539    2.8797761 
   18900    908.27528   -1680.0029   -1629.4018   -3433.3984     5156.097    2.8812337    5148.3331    896.99327    11.401763   -1628.5692     2.879781 
   19000    900.92834   -1678.7463   -1628.5546   -1541.1964    5155.0792    2.8810442     5148.288    897.00475    29.040094   -1628.5734    2.8797726 
   19100    903.87333   -1678.2388    -1627.883    317.58747    5150.0139    2.8801002    5148.3835    897.04683    16.336686   -1628.5694    2.8797905 
   19200    898.22672   -1677.3635   -1627.3222    -795.9429    5154.9597    2.8810219    5148.3897    897.17873    20.418545   -1628.5588    2.8797917 
   19300    889.23493   -1676.4461   -1626.9059   -1914.8776    5156.9065    2.8813845    5148.4522    897.31666     18.22927   -1628.5431    2.8798034 
   19400     932.8655   -1678.5862   -1626.6152   -1262.0262    5157.8849    2.8815667    5148.5083    897.50263    19.238682    -1628.524    2.8798139 
   19500    901.02271   -1676.7695   -1626.5725    1907.9272    5146.1357    2.8793771     5148.569    897.64702    15.539142   -1628.5034    2.8798253 
   19600    891.96233   -1676.5512    -1626.859   -1062.0024    5158.2619    2.8816369    5148.5863    897.81857    19.072551   -1628.4844    2.8798286 
   19700    851.57432   -1675.2302    -1627.788    3557.4162    5142.7815    2.8787514    5148.5646     898.0092    26.185108   -1628.4717    2.8798246 
   19800    855.03524   -1677.0041   -1629.3691    3230.5247    5143.9591    2.8789711    5148.6298    897.96772    11.048618   -1628.4725    2.8798368 
   19900    870.51102   -1679.5974   -1631.1002   -2802.3325    5153.6707    2.8807817     5148.595     897.8495    15.838068   -1628.4905    2.8798303 
Finished 900 K - next row contains averaged properties
   20000    870.24715   -1680.8366   -1632.3541      1608.37    5141.5725    2.8785258    5148.5397    897.57722    23.952787   -1628.5234    2.8798201 
Loop time of 6.01631 on 2 procs for 10000 steps with 432 atoms

Performance: 287.219 ns/day, 0.084 hours/ns, 1662.147 timesteps/s
99.5% CPU use with 2 MPI tasks x 1 OpenMP threads

MPI task timing breakdown:
Section |  min time  |  avg time  |  max time  |%varavg| %total
---------------------------------------------------------------
Pair    | 5.1842     | 5.3361     | 5.488      |   6.6 | 88.69
Neigh   | 0.0021083  | 0.0021327  | 0.002157   |   0.1 |  0.04
Comm    | 0.19       | 0.3416     | 0.49319    |  25.9 |  5.68
Output  | 0.031415   | 0.031657   | 0.031899   |   0.1 |  0.53
Modify  | 0.26093    | 0.26212    | 0.26331    |   0.2 |  4.36
Other   |            | 0.04273    |            |       |  0.71

Nlocal:    216 ave 218 max 214 min
Histogram: 1 0 0 0 0 0 0 0 0 1
Nghost:    1924 ave 1924 max 1924 min
Histogram: 2 0 0 0 0 0 0 0 0 0
Neighs:    15028.5 ave 15198 max 14859 min
Histogram: 1 0 0 0 0 0 0 0 0 1

Total # of neighbors = 30057
Ave neighs/atom = 69.5764
Neighbor list builds = 5
Dangerous builds = 0
System init for write_data ...
Setting up Verlet run ...
  Unit style    : metal
  Current step  : 0
  Time step     : 0.002
Per MPI rank memory allocation (min/avg/max) = 4.281 | 4.281 | 4.281 Mbytes
Step Temp PotEng TotEng Press Volume 
       0         1200   -1680.8366   -1613.9832    5424.7674    5141.5725 
     100    1006.4348   -1668.7263   -1612.6567   -8911.9019    5211.5658 
     200    1132.5912   -1672.3852   -1609.2873    4562.8714    5160.3879 
     300    1063.1811   -1665.8604   -1606.6294   -4225.4559    5204.9747 
     400    1067.5863   -1663.6188   -1604.1424    4039.1528    5181.7992 
     500    1127.5954   -1664.1549   -1601.3353    1186.8626    5195.5099 
     600    1121.6719   -1660.8496     -1598.36   -1963.3323    5217.5706 
     700    1177.8836   -1661.1104   -1595.4892    6223.8873    5179.5977 
     800    1181.5685   -1658.7998   -1592.9733   -10043.268    5245.8794 
     900    1200.0138   -1657.6178   -1590.7637     10454.93    5183.2028 
    1000    1207.0776   -1656.3563   -1589.1086   -7395.7714    5253.0495 
    1100    1270.1004   -1658.5928    -1587.834    3783.3844      5200.57 
    1200    1221.3126   -1655.1713   -1587.1306   -5898.8208    5247.1548 
    1300    1229.8909   -1655.4897   -1586.9711    5828.8179    5207.7514 
    1400    1222.6264   -1655.6416   -1587.5278    -4196.415    5238.1761 
    1500    1208.0072   -1656.0281   -1588.7287    3612.9007    5203.4384 
    1600    1151.4323   -1654.6313   -1590.4837   -189.49689    5229.7276 
    1700     1209.423   -1659.7365   -1592.3581    2712.2864    5206.2696 
    1800    1207.6516   -1661.3748   -1594.0952   -5075.1802    5217.0159 
    1900    1168.4863    -1660.426   -1595.3283    1065.6178    5206.0442 
    2000    1149.8137   -1660.0056   -1595.9482    694.94829    5202.0259 
    2100    1156.2363   -1660.3607   -1595.9455   -5977.9497    5224.6807 
    2200    1189.2713   -1661.4448   -1595.1892    9769.8913    5177.3314 
    2300     1150.241   -1657.1137   -1593.0325   -8134.8676    5246.2137 
    2400     1258.162   -1658.9956   -1588.9019    11393.353    5172.9106 
    2500    1151.2892   -1650.3135   -1586.1739   -11527.124    5275.3378 
    2600    1219.4648   -1653.1353   -1585.1975    14960.626    5170.4417 
    2700    1207.5699   -1652.6251     -1585.35   -11401.219    5280.7814 
    2800    1283.4883   -1657.6071   -1586.1025    10049.562    5177.7225 
[...]
    7300    1210.8051    -1654.841   -1587.3857    271.77987     5226.761 
    7400    1276.2185   -1657.4801   -1586.3805    1241.8244    5213.0975 
    7500    1222.7522   -1654.1658   -1586.0449   -3554.3206    5239.4073 
    7600    1240.9067   -1655.3594   -1586.2271     4793.891    5205.3844 
    7700    1218.1947   -1655.2606   -1587.3936   -5082.0263    5237.5429 
    7800    1195.2779   -1656.1254   -1589.5351    5363.3275    5198.5792 
    7900    1206.4332   -1659.2831   -1592.0714   -2985.8777    5232.5301 
    8000    1212.9188     -1661.71   -1594.1369    3885.9381    5192.5108 
    8100    1156.5084    -1659.691   -1595.2606   -4774.1629    5224.8417 
    8200     1178.312   -1661.1345   -1595.4894   -271.47585    5209.2501 
    8300    1138.9481   -1658.5502   -1595.0981      5342.52    5192.5012 
    8400    1159.4273   -1658.8633   -1594.2703   -4384.5146    5229.8472 
    8500    1210.6493   -1660.6012   -1593.1545    4719.4106    5189.1419 
    8600    1212.0989   -1659.5518   -1592.0244   -8752.4899    5240.1692 
    8700    1269.9131   -1661.7191   -1590.9708    5958.8166    5185.9781 
    8800    1219.0699   -1658.2584   -1590.3427   -10323.928    5253.6092 
    8900    1227.4344   -1658.3509   -1589.9691    11850.883    5174.8585 
    9000    1214.5117   -1657.6437   -1589.9819   -12757.648    5264.3299 
    9100    1218.1948   -1657.8665   -1589.9995    10833.897    5177.5091 
    9200    1180.8138   -1656.0312   -1590.2467   -7107.0685    5252.8726 
    9300    1180.2221   -1656.2004   -1590.4489    6992.6237    5195.8069 
    9400    1182.7596   -1656.6114   -1590.7185    57.291438    5224.4218 
    9500    1220.8569    -1659.101   -1591.0857   -3402.1517    5217.0839 
    9600    1118.7729   -1654.1319   -1591.8038    4161.5165    5202.0652 
    9700    1164.4292   -1657.6701   -1592.7984   -7286.0478    5237.7469 
    9800    1180.0862   -1660.0992   -1594.3553     6611.183    5180.2198 
    9900      1149.42   -1660.2089   -1596.1735   -10631.895    5243.0419 
   10000    1212.6825   -1665.2806   -1597.7207    8819.8957    5163.1333 
Loop time of 5.32087 on 2 procs for 10000 steps with 432 atoms

Performance: 324.759 ns/day, 0.074 hours/ns, 1879.392 timesteps/s
99.6% CPU use with 2 MPI tasks x 1 OpenMP threads

MPI task timing breakdown:
Section |  min time  |  avg time  |  max time  |%varavg| %total
---------------------------------------------------------------
Pair    | 4.799      | 4.825      | 4.8511     |   1.2 | 90.68
Neigh   | 0.069511   | 0.06978    | 0.07005    |   0.1 |  1.31
Comm    | 0.20027    | 0.22635    | 0.25243    |   5.5 |  4.25
Output  | 0.03022    | 0.030416   | 0.030612   |   0.1 |  0.57
Modify  | 0.13567    | 0.13591    | 0.13616    |   0.1 |  2.55
Other   |            | 0.03338    |            |       |  0.63

Nlocal:    216 ave 222 max 210 min
Histogram: 1 0 0 0 0 0 0 0 0 1
Nghost:    1867 ave 1894 max 1840 min
Histogram: 1 0 0 0 0 0 0 0 0 1
Neighs:    14979.5 ave 15712 max 14247 min
Histogram: 1 0 0 0 0 0 0 0 0 1

Total # of neighbors = 29959
Ave neighs/atom = 69.3495
Neighbor list builds = 159
Dangerous builds = 0
Setting up Verlet run ...
  Unit style    : metal
  Current step  : 10000
  Time step     : 0.002
Per MPI rank memory allocation (min/avg/max) = 4.281 | 4.281 | 4.281 Mbytes
Step Temp PotEng TotEng Press Volume v_my_lx f_1 f_2 f_3 f_4 f_5 
   10000    1212.6825   -1665.2806   -1597.7207    8819.8957    5163.1333    2.8825438            0            0            0            0            0 
   10100    1077.8638   -1658.7092   -1598.6602   -9018.5633    5243.6619    2.8974528    5199.2959    1138.0373     725.1104   -1598.3345    2.8892464 
   10200    1151.7886   -1662.7719   -1598.6045    12320.397    5156.2679    2.8812656    5197.2146    1142.4485    896.54612   -1598.5561    2.8888606 
   10300    1116.1768   -1659.6231   -1597.4397   -6367.4405    5236.9582    2.8962175    5201.6134    1140.1744   -113.23256   -1598.4378    2.8896752 
   10400    1151.9957    -1658.773   -1594.5941    9293.2493    5174.9046    2.8847327    5199.3817    1146.7475    672.09779   -1597.8558    2.8892632 
   10500    1201.2947   -1658.4571   -1591.5316   -8266.1134    5246.5825    2.8979906    5205.1612    1150.4825   -174.81203   -1596.8883    2.8903321 
   10600    1207.5513   -1657.0306   -1589.7566    4153.0437    5202.7492    2.8898975    5204.2323    1159.8979    653.94358   -1595.8229    2.8901613 
   10700    1218.7259   -1656.7797   -1588.8831   -3982.9558    5233.0216    2.8954916    5209.7715    1165.7133   -178.39006   -1594.8818    2.8911853 
   10800    1279.6301     -1659.82   -1588.5304    -867.3501    5217.5685    2.8926387    5208.5321     1173.694    459.45895      -1594.1    2.8909571 
   10900    1221.6324   -1656.5636   -1588.5051    802.78385    5219.8655    2.8930631    5212.1937    1177.6426   -112.64121   -1593.4748    2.8916341 
   11000    1234.0922   -1657.6235   -1588.8709   -1570.3938     5224.683    2.8939528    5211.3757    1182.4188    276.79564   -1592.9909    2.8914837 
   11100    1214.0007   -1657.2742   -1589.6409   -333.24077    5215.8338    2.8923181     5213.227    1184.5129   -18.725071   -1592.6482    2.8918266 
   11200    1209.2776   -1658.2953   -1590.9251   -2573.0714    5224.7934    2.8939732    5212.8322     1187.127    162.22694   -1592.4475    2.8917543 
   11300    1182.4489   -1658.5525   -1592.6769    3207.7589     5201.463    2.8896593    5213.5236     1187.035     10.62142   -1592.3964    2.8918827 
   11400    1161.0952    -1659.497   -1594.8111   -4477.8845    5221.3209    2.8933319    5212.9007    1186.9687    101.40815   -1592.4911    2.8917679 
   11500    1129.1481   -1659.6626   -1596.7565    3541.0427    5191.7119    2.8878524    5212.7352    1184.7442    21.743384   -1592.7144    2.8917378 
   11600    1149.7691   -1662.2271   -1598.1722   -2171.0451    5210.5505    2.8913412    5211.6016    1182.8769    119.98835   -1593.0152    2.8915283 
   11700    1106.2876    -1660.375   -1598.7425    4252.9219    5186.3957    2.8868664    5211.4554    1180.7235   -13.721422   -1593.3392    2.8915017 
   11800    1118.3402   -1660.6408   -1598.3368   -3394.7157    5218.3297    2.8927793    5210.3412     1178.622     109.9018   -1593.6333    2.8912956 
   11900    1215.6372   -1663.6139   -1595.8894    3324.4162    5183.6593    2.8863586    5210.4256    1176.8841    3.1775369   -1593.8292    2.8913115 
   12000    1172.5682   -1656.7767   -1591.4516   -5428.4115    5248.1483    2.8982788    5210.1956    1177.2015    93.143848   -1593.8205    2.8912689 
   12100    1236.9585   -1657.7111   -1588.7987    9701.2987    5188.6333    2.8872815    5211.0334    1178.3473    15.935712   -1593.6364    2.8914237 
   12200    1219.6414    -1655.788   -1587.8404   -6732.5419    5250.9698    2.8987981    5211.3494    1180.8798    23.587226   -1593.3916    2.8914822 
   12300    1271.4756   -1658.2561   -1587.4207    5534.4445    5194.6499    2.8883971    5211.8433    1182.4771    35.014482   -1593.1409    2.8915736 
   12400    1219.4356   -1655.4928   -1587.5567   -10327.047    5265.7043     2.901507    5212.5507    1184.1645   -1.0476041   -1592.9062    2.8917042 
   12500    1241.9278   -1657.2465   -1588.0573    13096.046    5171.4641    2.8840933    5212.5521     1186.122    107.39574   -1592.7026    2.8917042 
   12600    1152.4994   -1653.5817   -1589.3747   -11529.955     5270.972    2.9024742    5213.5712    1187.2325   -72.178965   -1592.5503    2.8918919 
   12700    1261.0927   -1661.3378   -1591.0809    10039.703    5171.6498    2.8841278    5212.8441    1188.3829      168.898   -1592.4635    2.8917569 
   12800     1165.405   -1657.9481   -1593.0221   -7545.0186    5244.2445      2.89756    5214.0524    1188.0548   -133.45348   -1592.4485    2.8919797 
   12900    1218.1006   -1662.4493   -1594.5875    219.35092    5203.2946    2.8899984    5212.7331    1187.9579    214.69181   -1592.4914    2.8917352 
   13000    1191.7073    -1661.954   -1595.5626    1792.0717    5199.5999    2.8893142    5213.9435    1187.0326   -126.00809   -1592.5745    2.8919586 
   13100    1150.7117   -1659.9717   -1595.8643   -6020.0863    5225.2274    2.8940534    5212.5615    1186.5544     163.9844   -1592.6728    2.8917025 
   13200    1170.1889   -1660.6763   -1595.4838    11079.482    5169.0345    2.8836416    5213.0621    1185.4109   -44.272275   -1592.7679     2.891795 
   13300    1166.1451   -1658.8886   -1593.9213   -8559.7597    5242.8423    2.8973018    5212.3806    1185.1756    86.439939   -1592.8305    2.8916688 
   13400    1225.2941   -1658.4732   -1590.2107    6684.7443     5188.033    2.8871702    5212.7347    1185.1393    11.707823   -1592.8133    2.8917344 
   13500    1247.7334   -1656.3415   -1586.8289   -8932.6969    5258.3118    2.9001486    5212.8839    1185.9331     43.46425   -1592.6871    2.8917621 
   13600    1241.3812    -1654.427   -1585.2682    7122.3007    5201.2658    2.8896228    5213.2902    1187.0905    46.345975   -1592.5001    2.8918373 
   13700    1267.3942   -1655.6739    -1585.066   -7578.6344    5255.1344    2.8995643    5213.7979    1188.8353    18.226988   -1592.3007    2.8919312 
   13800    1223.4721   -1653.7803   -1585.6193    6372.7527    5202.9595    2.8899364    5214.0281    1190.2651     51.26881   -1592.1164    2.8919739 
   13900    1260.2419   -1657.1206   -1586.9111   -6131.5401    5242.1655    2.8971771    5214.4717    1191.4034   -2.6228505   -1591.9654     2.892056 
   14000    1208.3559   -1655.9233   -1588.6045    2735.1069    5215.6257    2.8922796    5214.5761    1191.8835    48.051116   -1591.8597    2.8920756 
   14100    1224.1487   -1658.6344   -1590.4357   -2587.0142    5228.6536    2.8946858    5214.9513    1191.9294    11.970421   -1591.8032    2.8921451 
   14200    1115.2297   -1654.2193   -1592.0886    6554.6295    5196.0235    2.8886516    5214.6865    1192.1872    65.884719   -1591.7909    2.8920963 
   14300    1163.8284   -1658.1036   -1593.2654   -1315.1748    5222.5291    2.8935551    5214.9438    1191.9549    -10.75994   -1591.8123     2.892144 
   14400    1184.0306   -1659.8299   -1593.8662    2649.7551      5200.56    2.8894921    5214.5521    1191.6502    60.871039   -1591.8526    2.8920717 
   14500      1146.84   -1657.8971   -1594.0053    1434.1942    5214.8264    2.8921318    5214.7279    1191.1318   -6.0074892   -1591.8997    2.8921044 
   14600    1152.2283   -1657.7804   -1593.5885    3181.4154    5199.7454    2.8893412    5214.3374    1190.7881    56.501286   -1591.9411    2.8920323 
   14700    1147.9112   -1656.6011   -1592.6497   -2181.5102    5223.9132    2.8938107    5214.5888    1190.4299   -12.813095   -1591.9671    2.8920789 
   14800    1138.0996   -1653.8671   -1590.4623    2159.2394    5211.5361    2.8915234    5214.2838    1190.6547    69.162682   -1591.9607    2.8920226 
   14900    1276.6714   -1657.0995   -1585.9747     345.2387    5221.0419    2.8932804    5214.6601    1191.2386   -5.4250932   -1591.8865    2.8920923 
   15000    1269.9581   -1653.3862   -1582.6354   -520.16551    5237.6944    2.8963532     5214.716    1192.6427    47.047997   -1591.7282    2.8921028 
   15100     1242.047   -1651.1644   -1581.9686    8458.7745    5212.3806    2.8916796    5215.1941    1194.2021   -0.4696072   -1591.5404    2.8921912 
   15200    1261.2109   -1652.8854   -1582.6219   -7929.1643    5263.1486    2.9010375    5215.4722    1195.4895     30.48999   -1591.3613    2.8922426 
   15300     1243.973   -1653.4614   -1584.1583    10128.376    5195.7041    2.8885924     5215.837    1196.6052    13.300091   -1591.2106      2.89231 
   15400    1197.9461   -1653.1016   -1586.3627   -5027.5766    5253.9071    2.8993386    5215.9954    1197.4836    17.226445   -1591.1007    2.8923393 
   15500    1226.9406   -1656.8963    -1588.542    6212.4139      5191.76    2.8878613    5216.1057    1198.0405     19.54869   -1591.0354    2.8923598 
   15600    1204.1978   -1657.4623   -1590.3751   -9718.3504    5251.2353     2.898847    5216.2541    1198.1534   0.53593016   -1591.0089    2.8923872 
   15700    1195.3771   -1658.1686   -1591.5728    7636.4278    5185.8502    2.8867652    5216.0832    1198.1355    44.817593   -1591.0094    2.8923556 
   15800    1164.0565    -1657.293   -1592.4421   -7271.5809    5237.9962    2.8964088    5216.3295    1197.8463   -23.147332   -1591.0274    2.8924012 
   15900    1231.0741   -1661.3982   -1592.8137    4396.7773    5196.6218    2.8887625    5215.9297    1197.6844    66.394547   -1591.0543    2.8923272 
   16000    1219.3546   -1660.8879   -1592.9563   -2063.2917    5213.9288    2.8919659    5216.2542    1197.2381   -38.419162   -1591.0848    2.8923872 
   16100    1215.1832   -1660.3726   -1592.6734   -2023.2808    5213.8818    2.8919572    5215.7028    1197.1905    74.021162   -1591.1119    2.8922852 
   16200     1207.816   -1659.0874   -1591.7986    2926.4953    5198.6675    2.8891415    5216.0633    1196.8483   -32.596088   -1591.1302    2.8923518 
   16300    1183.3025   -1655.8099   -1589.8868   -5894.4306    5236.6252    2.8961561    5215.6267    1196.9304    65.056704   -1591.1264     2.892271 
   16400    1274.3928   -1657.6005   -1586.6027    4673.6933    5201.2939     2.889628    5215.9874    1197.3339   -16.156406   -1591.0818    2.8923377 
   16500    1220.1033   -1651.8613    -1583.888   -7137.9676     5259.093    2.9002922    5215.9069    1197.9719    45.888418   -1590.9903    2.8923229 
   16600    1280.9484   -1653.9537   -1582.5906    7687.1316    5196.2157    2.8886873    5216.2912    1198.8741     1.658169   -1590.8711    2.8923938 
   16700    1274.7881    -1653.826   -1582.8061   -9235.9602    5263.2151    2.9010497    5216.4211    1199.9833    23.406509    -1590.748    2.8924178 
   16800    1260.7784   -1654.2428   -1584.0034    7404.3729    5196.8098    2.8887973    5216.6431    1200.7317    14.414836   -1590.6395    2.8924588 
   16900    1250.9882   -1655.7389   -1586.0449   -6680.9322     5249.403    2.8985098    5216.7855    1201.4563    10.974677   -1590.5582    2.8924852 
   17000    1235.3978   -1656.8514    -1588.026    7552.5234    5195.8912    2.8886271    5216.7909    1201.8702    25.457892   -1590.5086    2.8924863 
   17100    1250.2786   -1659.2072   -1589.5528   -4795.5659     5236.261     2.896089    5216.9441    1202.1365   -2.2108577   -1590.4856    2.8925146 
   17200    1185.3147   -1656.4364   -1590.4011    2736.9089    5209.8451    2.8912107    5216.8884    1202.1847    21.464477   -1590.4792    2.8925044 
   17300    1214.7849   -1658.6057   -1590.9287   -448.33367    5216.2317    2.8923916    5216.9359    1202.2083    2.8394687   -1590.4817    2.8925133 
   17400     1149.507   -1655.3578   -1591.3175    520.39415    5217.2388    2.8925777    5216.8741    1202.0679    18.092528   -1590.4905     2.892502 
   17500    1216.3281   -1659.3847   -1591.6217    1436.9448    5206.0278    2.8905044     5216.832    1202.0666    6.8522678   -1590.5037    2.8924943 
   17600    1250.4038   -1661.6094    -1591.948   -2785.3972    5217.1999    2.8925705    5216.7561     1201.989    15.104181   -1590.5205    2.8924804 
   17700    1202.1711   -1659.1172   -1592.1429   -1018.5819     5217.939    2.8927071    5216.8009    1201.7292    5.8286691   -1590.5407    2.8924888 
   17800    1204.1234   -1659.2886   -1592.2055    77.075087    5213.0132    2.8917966    5216.7272     1201.721    13.157085   -1590.5616    2.8924753 
   17900    1137.0611   -1655.5016   -1592.1547    2759.2626    5208.7533    2.8910087    5216.7163    1201.5376    5.9671728   -1590.5823    2.8924734 
   18000    1212.6225   -1659.3169   -1591.7603   -1785.1233    5218.7666    2.8928601    5216.6548    1201.3341    10.988153   -1590.6001    2.8924621 
   18100    1253.1095   -1660.7176   -1590.9055    -1161.543    5215.6816    2.8922899     5216.639    1201.3864    10.061877   -1590.6097    2.8924593 
   18200    1229.0177   -1658.2026   -1589.7327   -344.74728    5217.2359    2.8925772     5216.646    1201.4615    9.2972753   -1590.6064    2.8924606 
   18300    1276.9481   -1659.5425   -1588.4023   -1554.2244    5218.0928    2.8927356    5216.7151    1201.5846    -2.708723    -1590.588    2.8924735 
   18400    1213.6505   -1654.9189   -1587.3051   -2306.1428    5228.2575    2.8946127    5216.6843    1201.7659     18.17911    -1590.555    2.8924679 
   18500    1275.8891   -1657.5853   -1586.5041    4022.5793    5210.5714     2.891345    5216.7729    1202.2759    6.8963329   -1590.5115    2.8924843 
   18600    1231.3229   -1654.9279   -1586.3295   -5289.0991    5245.5511    2.8978007    5216.9216    1202.5848   -2.4286882   -1590.4635    2.8925119 
   18700    1287.9034   -1658.5902   -1586.8397    4314.7482    5203.2519    2.8899905    5216.9535    1203.0493    15.521736    -1590.418    2.8925178 
   18800    1187.0194   -1654.5767   -1588.4466   -5428.7741    5250.2238    2.8986609    5217.1335    1203.2368   -4.8634736   -1590.3858    2.8925511 
   18900    1263.6836   -1661.4343   -1591.0331    7080.1961    5186.5865    2.8869018    5217.0428    1203.3928    24.937285   -1590.3784    2.8925343 
   19000    1182.4692   -1659.5611   -1593.6844     -5247.34    5234.3007    2.8957275    5217.2078    1203.2862   -28.205013   -1590.4011    2.8925648 
   19100    1218.7916   -1663.1745   -1595.2742   -49.257479    5200.3942    2.8894614    5216.9172    1203.1166     33.10672   -1590.4464     2.892511 
   19200     1138.077   -1659.3662   -1595.9627    453.45427     5208.139     2.890895    5217.0382    1202.5722   -21.747617   -1590.5032    2.8925335 
   19300    1206.0505   -1663.0389   -1595.8484   -212.45464    5209.3686    2.8911225    5216.7206    1202.2884    28.993958   -1590.5612    2.8924747 
   19400    1182.2757   -1661.0853   -1595.2194    3062.1551    5197.9173    2.8890025    5216.8125    1201.7972   -16.465382   -1590.6145    2.8924917 
   19500    1198.1168   -1660.9189   -1594.1705   -7066.0336    5224.2774    2.8938779    5216.5422    1201.5115    25.530709   -1590.6573    2.8924418 
   19600    1253.0042   -1662.5449   -1592.7386    3463.1198    5194.4271    2.8883558    5216.6258    1201.2315   -9.0400062   -1590.6866    2.8924572 
   19700    1200.7718   -1658.2688   -1591.3725   -7135.6051    5235.1706    2.8958879     5216.484    1201.1964    16.241741   -1590.7004    2.8924311 
   19800    1202.8035   -1657.2601   -1590.2506    5018.0693    5195.5926    2.8885718    5216.5608    1201.1334   -1.8680359   -1590.7013    2.8924453 
   19900     1258.064   -1659.6169   -1589.5288   -11405.881    5256.4682    2.8998096    5216.5868    1201.1139    4.7088337   -1590.6931    2.8924501 
Finished 1200 K - next row contains averaged properties
   20000    1213.0047   -1656.8282   -1589.2503    9891.8994    5175.7652    2.8848927    5216.5478    1201.3071    15.093168   -1590.6802    2.8924429 
Loop time of 6.07792 on 2 procs for 10000 steps with 432 atoms

Performance: 284.308 ns/day, 0.084 hours/ns, 1645.300 timesteps/s
99.7% CPU use with 2 MPI tasks x 1 OpenMP threads

MPI task timing breakdown:
Section |  min time  |  avg time  |  max time  |%varavg| %total
---------------------------------------------------------------
Pair    | 5.3666     | 5.4125     | 5.4584     |   2.0 | 89.05
Neigh   | 0.062034   | 0.0624     | 0.062767   |   0.1 |  1.03
Comm    | 0.22361    | 0.26939    | 0.31518    |   8.8 |  4.43
Output  | 0.031027   | 0.03129    | 0.031553   |   0.1 |  0.51
Modify  | 0.26239    | 0.26274    | 0.26308    |   0.1 |  4.32
Other   |            | 0.03959    |            |       |  0.65

Nlocal:    216 ave 222 max 210 min
Histogram: 1 0 0 0 0 0 0 0 0 1
Nghost:    1871 ave 1872 max 1870 min
Histogram: 1 0 0 0 0 0 0 0 0 1
Neighs:    14968.5 ave 15519 max 14418 min
Histogram: 1 0 0 0 0 0 0 0 0 1

Total # of neighbors = 29937
Ave neighs/atom = 69.2986
Neighbor list builds = 142
Dangerous builds = 0
System init for write_data ...
Total wall time: 0:00:43
