#  #

1    atoms
1  atom types

0.0000000000  2.7800000000   xlo xhi
0.0000000000  27.8000000000   ylo yhi
0.0000000000  27.8000000000   zlo zhi

Masses

1  58.700000

Atoms

1       1   0.0000000000   0.0000000000   0.0000000000
