
  ___ ___ ___ _ _ _  
 |   |   |_  | | | | 
 | | | | | . | | | | 
 |__ |  _|___|_____|  19.8.1
 |___|_|             

User:   ericlin@hebbe03-1
Date:   Wed Feb  5 22:38:36 2020
Arch:   x86_64
Pid:    5499
Python: 3.7.2
gpaw:   /apps/Hebbe7/software/MPI/intel/2019.1.144-GCC-8.2.0-2.31.1/impi/2018.4.274/GPAW/19.8.1-Python-3.7.2/lib/python3.7/site-packages/gpaw
_gpaw:  /apps/Hebbe7/software/MPI/intel/2019.1.144-GCC-8.2.0-2.31.1/impi/2018.4.274/GPAW/19.8.1-Python-3.7.2/bin/
        gpaw-python
ase:    /apps/Hebbe7/software/MPI/intel/2019.1.144-GCC-8.2.0-2.31.1/impi/2018.4.274/ASE/3.18.0-Python-3.7.2/lib/python3.7/site-packages/ase (version 3.18.0)
numpy:  /apps/Hebbe7/software/MPI/intel/2019.1.144-GCC-8.2.0-2.31.1/impi/2018.4.274/SciPy-bundle/2019.03/lib/python3.7/site-packages/numpy (version 1.16.2)
scipy:  /apps/Hebbe7/software/MPI/intel/2019.1.144-GCC-8.2.0-2.31.1/impi/2018.4.274/SciPy-bundle/2019.03/lib/python3.7/site-packages/scipy (version 1.2.1)
libxc:  4.3.4
units:  Angstrom and eV
cores:  20

Input parameters:
  basis: dzp
  charge: 1
  mode: lcao
  symmetry: {point_group: False}
  xc: PBE

System changes: positions, numbers, cell, pbc, initial_charges, initial_magmoms 

Initialize ...

O-setup:
  name: Oxygen
  id: 32ecd46bf208036f09c70b0ec9a88b78
  Z: 8
  valence: 6
  core: 2
  charge: 0.0
  file: /apps/Common/Core/GPAW-setups/0.9.20000/O.PBE.gz
  compensation charges: gauss, rc=0.21, lmax=2
  cutoffs: 1.17(filt), 0.83(core),
  valence states:
                energy  radius
    2s(2.00)   -23.961   0.688
    2p(4.00)    -9.029   0.598
    *s           3.251   0.688
    *p          18.182   0.598
    *d           0.000   0.619

  LCAO basis set for O:
    Name: dzp
    File: /apps/Common/Core/GPAW-setups/0.9.20000/O.dzp.basis.gz
    Number of radial functions: 5
    Number of spherical harmonics: 13
      l=0, rc=4.3438 Bohr: 2s-sz confined orbital
      l=1, rc=5.3906 Bohr: 2p-sz confined orbital
      l=0, rc=2.2969 Bohr: 2s-dz split-valence wave
      l=1, rc=2.8906 Bohr: 2p-dz split-valence wave
      l=2, rc=5.3906 Bohr: d-type Gaussian polarization

H-setup:
  name: Hydrogen
  id: d65de229564ff8ea4db303e23b6d1ecf
  Z: 1
  valence: 1
  core: 0
  charge: 0.0
  file: /apps/Common/Core/GPAW-setups/0.9.20000/H.PBE.gz
  compensation charges: gauss, rc=0.15, lmax=2
  cutoffs: 0.85(filt), 0.53(core),
  valence states:
                energy  radius
    1s(1.00)    -6.494   0.476
    *s          20.717   0.476
    *p           0.000   0.476

  LCAO basis set for H:
    Name: dzp
    File: /apps/Common/Core/GPAW-setups/0.9.20000/H.dzp.basis.gz
    Number of radial functions: 3
    Number of spherical harmonics: 5
      l=0, rc=6.4219 Bohr: 1s-sz confined orbital
      l=0, rc=3.6094 Bohr: 1s-dz split-valence wave
      l=1, rc=6.4219 Bohr: p-type Gaussian polarization

Na-setup:
  name: Sodium
  id: d7ecbc49209718622bcbe287195dca2a
  Z: 11
  valence: 7
  core: 4
  charge: 0.0
  file: /apps/Common/Core/GPAW-setups/0.9.20000/Na.PBE.gz
  compensation charges: gauss, rc=0.37, lmax=2
  cutoffs: 2.17(filt), 2.59(core),
  valence states:
                energy  radius
    3s(1.00)    -2.744   1.201
    2p(6.00)   -28.672   1.217
    3p(0.00)    -0.743   1.217
    *s          24.468   1.201
    *d           0.000   1.238

  LCAO basis set for Na:
    Name: dzp
    File: /apps/Common/Core/GPAW-setups/0.9.20000/Na.dzp.basis.gz
    Number of radial functions: 7
    Number of spherical harmonics: 17
      l=0, rc=11.4062 Bohr: 3s-sz confined orbital
      l=1, rc=3.6719 Bohr: 2p-sz confined orbital
      l=1, rc=15.9375 Bohr: 3p-sz confined orbital
      l=0, rc=6.9531 Bohr: 3s-dz split-valence wave
      l=1, rc=2.4219 Bohr: 2p-dz split-valence wave
      l=1, rc=10.0469 Bohr: 3p-dz split-valence wave
      l=1, rc=11.4062 Bohr: p-type Gaussian polarization

Reference energy: -53998.593513

Spin-paired calculation

Occupation numbers:
  Fermi-Dirac: width=0.1000 eV

Convergence criteria:
  Maximum total energy change: 0.0005 eV / electron
  Maximum integral of absolute density change: 0.0001 electrons
  Maximum integral of absolute eigenstate change: 4e-08 eV^2
  Maximum number of iterations: 333

Symmetries present (total): 1

  ( 1  0  0)
  ( 0  1  0)
  ( 0  0  1)

1 k-point (Gamma)
1 k-point in the irreducible part of the Brillouin zone
       k-points in crystal coordinates                weights
   0:     0.00000000    0.00000000    0.00000000          1/1

Wave functions: LCAO
  Diagonalizer: Serial LAPACK
  Atomic Correction: dense with blas
  Datatype: float
 

Eigensolver
   LCAO using direct dense diagonalizer 

Densities:
  Coarse grid: 44*44*44 grid
  Fine grid: 88*88*88 grid
  Total Charge: 1.000000 

Density mixing:
  Method: separate
  Backend: pulay
  Linear mixing parameter: 0.05
  Mixing with 5 old densities
  Damping of long wave oscillations: 50 

Hamiltonian:
  XC and Coulomb potentials evaluated on a 88*88*88 grid
  Using the PBE Exchange-Correlation functional
  Interpolation: tri-quintic (5. degree polynomial)
  Poisson solver: FastPoissonSolver using
    6*3+1=19 point O(h^6) finite-difference Laplacian stencil;
    FFT axes: [0, 1, 2];
    FST axes: [].
 

XC parameters: PBE with 2 nearest neighbor stencil

Memory estimate:
  Process memory now: 107.24 MiB
  Calculator: 12.06 MiB
    Density: 2.83 MiB
      Arrays: 0.86 MiB
      Localized functions: 1.63 MiB
      Mixer: 0.33 MiB
    Hamiltonian: 0.68 MiB
      Arrays: 0.56 MiB
      XC: 0.00 MiB
      Poisson: 0.00 MiB
      vbar: 0.12 MiB
    Wavefunctions: 8.54 MiB
      C [qnM]: 0.53 MiB
      S, T [2 x qmm]: 4.94 MiB
      P [aqMi]: 0.02 MiB
      BasisFunctions: 3.06 MiB
      Eigensolver: 0.00 MiB

Total number of cores used: 20
Domain decomposition: 5 x 2 x 2

Number of atoms: 73
Number of atomic orbitals: 569
Number of bands in calculation: 123
Bands to converge: occupied states only
Number of valence electrons: 198

... initialized

Initializing position-dependent things.

Density initialized from atomic densities
       .---------------------.  
      /|                     |  
     / |     H               |  
    /  |                   H |  
   /   | H  OH             O |  
  / H OH       OHH    H      |  
 *H   H|      H O HHO        |  
 |     O      H   H  OH      |  
 | H  O| H   OH           H  |  
 |    H|  HHO  H    HH O     |  
 |     O   H      O O  HO    |  
 |     .H---H-O-H--H--H------.  
 |    /        H   O      H /   
 |   /H  OH  O     H       /    
 |  /  H     H            /     
 | /             O       /      
 |/  OH         H  H    /       
 *Na-------------------*        

Positions:
   0 O      2.819396    5.591711    3.146020    ( 0.0000,  0.0000,  0.0000)
   1 O      3.099917    9.485477    3.089785    ( 0.0000,  0.0000,  0.0000)
   2 O      0.556171    5.696983    0.341817    ( 0.0000,  0.0000,  0.0000)
   3 O      3.936436    2.777345    1.804092    ( 0.0000,  0.0000,  0.0000)
   4 O      6.479010    3.280136    2.503079    ( 0.0000,  0.0000,  0.0000)
   5 O      4.455530    6.050972    5.298088    ( 0.0000,  0.0000,  0.0000)
   6 O      2.310272    9.375748    5.600094    ( 0.0000,  0.0000,  0.0000)
   7 O      5.800264    7.625937    1.605669    ( 0.0000,  0.0000,  0.0000)
   8 O      6.338016    1.347520    9.702072    ( 0.0000,  0.0000,  0.0000)
   9 O      2.581227    7.107987    7.055536    ( 0.0000,  0.0000,  0.0000)
  10 O      1.628563    9.167816    0.832191    ( 0.0000,  0.0000,  0.0000)
  11 O      1.502673    3.972226    6.005292    ( 0.0000,  0.0000,  0.0000)
  12 O      5.088587    2.974060   -0.969587    ( 0.0000,  0.0000,  0.0000)
  13 O      0.274792    5.873312    4.463709    ( 0.0000,  0.0000,  0.0000)
  14 O      1.295751    2.682126   -0.398219    ( 0.0000,  0.0000,  0.0000)
  15 O      5.265598    8.403950    4.141343    ( 0.0000,  0.0000,  0.0000)
  16 O     -0.778106    0.441675   -0.782765    ( 0.0000,  0.0000,  0.0000)
  17 O      6.539808    4.846939    6.315423    ( 0.0000,  0.0000,  0.0000)
  18 O      3.971487    2.638825    5.721310    ( 0.0000,  0.0000,  0.0000)
  19 O     -0.343688   10.603621    5.997180    ( 0.0000,  0.0000,  0.0000)
  20 O     -0.244886    6.811734   -1.934602    ( 0.0000,  0.0000,  0.0000)
  21 O      3.208031    7.270903    0.766212    ( 0.0000,  0.0000,  0.0000)
  22 O      7.730394    5.626485    2.429047    ( 0.0000,  0.0000,  0.0000)
  23 O     -2.694197   10.717943    4.758473    ( 0.0000,  0.0000,  0.0000)
  24 H      1.966372    6.024747    3.405222    ( 0.0000,  0.0000,  0.0000)
  25 H      2.624229    4.597310    3.083039    ( 0.0000,  0.0000,  0.0000)
  26 H      3.334396   10.384345    2.567373    ( 0.0000,  0.0000,  0.0000)
  27 H      2.379554    9.228452    2.356907    ( 0.0000,  0.0000,  0.0000)
  28 H      0.817734    4.685958    0.355311    ( 0.0000,  0.0000,  0.0000)
  29 H     -0.144963    5.740228    1.148496    ( 0.0000,  0.0000,  0.0000)
  30 H      4.088526    3.201615    0.949509    ( 0.0000,  0.0000,  0.0000)
  31 H      4.843799    2.937269    2.290479    ( 0.0000,  0.0000,  0.0000)
  32 H      6.574140    2.475488    1.892463    ( 0.0000,  0.0000,  0.0000)
  33 H      6.389243    2.783887    3.381727    ( 0.0000,  0.0000,  0.0000)
  34 H      3.883341    5.839987    4.450245    ( 0.0000,  0.0000,  0.0000)
  35 H      3.618827    6.305185    5.911467    ( 0.0000,  0.0000,  0.0000)
  36 H      2.471214    9.614647    4.660812    ( 0.0000,  0.0000,  0.0000)
  37 H      1.575885    9.999238    5.850364    ( 0.0000,  0.0000,  0.0000)
  38 H      5.532248    7.826546    2.582969    ( 0.0000,  0.0000,  0.0000)
  39 H      4.845581    7.419149    1.334738    ( 0.0000,  0.0000,  0.0000)
  40 H      7.143854    1.202327    9.048474    ( 0.0000,  0.0000,  0.0000)
  41 H      6.004198    0.428965    9.939264    ( 0.0000,  0.0000,  0.0000)
  42 H      2.678557    7.985743    6.634532    ( 0.0000,  0.0000,  0.0000)
  43 H      1.528824    6.937033    7.060695    ( 0.0000,  0.0000,  0.0000)
  44 H      1.842081   10.033868    0.547738    ( 0.0000,  0.0000,  0.0000)
  45 H      2.348385    8.503293    0.578365    ( 0.0000,  0.0000,  0.0000)
  46 H      2.409669    3.624558    5.692078    ( 0.0000,  0.0000,  0.0000)
  47 H      1.050754    4.588423    5.359046    ( 0.0000,  0.0000,  0.0000)
  48 H      5.677060    3.673700   -1.381131    ( 0.0000,  0.0000,  0.0000)
  49 H      5.427648    2.103071   -0.558916    ( 0.0000,  0.0000,  0.0000)
  50 H      0.101987    6.383731    5.294245    ( 0.0000,  0.0000,  0.0000)
  51 H     -0.466506    5.809962    3.768242    ( 0.0000,  0.0000,  0.0000)
  52 H      0.355029    2.637903   -0.602675    ( 0.0000,  0.0000,  0.0000)
  53 H      1.501826    3.186353   -1.220363    ( 0.0000,  0.0000,  0.0000)
  54 H      4.891182    7.502940    4.543566    ( 0.0000,  0.0000,  0.0000)
  55 H      4.447301    8.825490    3.630088    ( 0.0000,  0.0000,  0.0000)
  56 H      0.161297    0.362959   -0.292342    ( 0.0000,  0.0000,  0.0000)
  57 H     -0.583601    1.001960   -1.573087    ( 0.0000,  0.0000,  0.0000)
  58 H      5.846414    5.399174    5.952066    ( 0.0000,  0.0000,  0.0000)
  59 H      7.260046    5.411124    6.723603    ( 0.0000,  0.0000,  0.0000)
  60 H      4.372608    2.696673    6.726093    ( 0.0000,  0.0000,  0.0000)
  61 H      3.453167    1.777143    5.846797    ( 0.0000,  0.0000,  0.0000)
  62 H     -1.283815   10.927743    5.580953    ( 0.0000,  0.0000,  0.0000)
  63 H      0.059086   11.481749    5.802292    ( 0.0000,  0.0000,  0.0000)
  64 H     -0.119126    6.295339   -0.965805    ( 0.0000,  0.0000,  0.0000)
  65 H     -0.572851    7.692809   -1.544432    ( 0.0000,  0.0000,  0.0000)
  66 H      3.068325    6.956068   -0.207916    ( 0.0000,  0.0000,  0.0000)
  67 H      2.739850    6.595922    1.335783    ( 0.0000,  0.0000,  0.0000)
  68 H      7.148827    4.685738    2.344262    ( 0.0000,  0.0000,  0.0000)
  69 H      7.090848    6.400919    2.141208    ( 0.0000,  0.0000,  0.0000)
  70 H     -3.625543   11.033312    5.092160    ( 0.0000,  0.0000,  0.0000)
  71 H     -2.935576    9.709105    4.452144    ( 0.0000,  0.0000,  0.0000)
  72 Na     0.500000    0.000000    0.000000    ( 0.0000,  0.0000,  0.0000)

Unit cell:
           periodic     x           y           z      points  spacing
  1. axis:    yes    8.956370    0.000000    0.000000    44     0.2036
  2. axis:    yes    0.000000    8.956370    0.000000    44     0.2036
  3. axis:    yes    0.000000    0.000000    8.956370    44     0.2036

  Lengths:   8.956370   8.956370   8.956370
  Angles:   90.000000  90.000000  90.000000

Effective grid spacing dv^(1/3) = 0.2036

                     log10-error:    total        iterations:
           time      wfs    density  energy       fermi  poisson
iter:   1  22:38:39          +inf  -321.670094    0      1      
iter:   2  22:38:39         -0.86  -316.906818    0      1      
iter:   3  22:38:40         -0.90  -303.320150    12     1      
iter:   4  22:38:40         -1.25  -303.534172    2      1      
iter:   5  22:38:42         -1.34  -302.896989    6      1      
iter:   6  22:38:43         -2.27  -302.863472    1      1      
iter:   7  22:38:44         -2.38  -302.862746    2      1      
iter:   8  22:38:45         -2.60  -302.856234    2      1      
iter:   9  22:38:45         -3.22  -302.856020    1      1      
iter:  10  22:38:46         -3.30  -302.855748    1      1      
iter:  11  22:38:47         -3.72  -302.855737    0      1      
iter:  12  22:38:47         -3.77  -302.855695    1      1      
iter:  13  22:38:48         -4.37  -302.855694    0      1      

Converged after 13 iterations.

Dipole moment: (7.305074, -18.810332, 5.791308) |e|*Ang

Energy contributions relative to reference atoms: (reference = -53998.593513)

Kinetic:       +382.323339
Potential:     -382.337898
External:        +0.000000
XC:            -312.287779
Entropy (-ST):   -0.000000
Local:           +9.446644
--------------------------
Free energy:   -302.855694
Extrapolated:  -302.855694

Fermi level: -0.35206

 Band  Eigenvalues  Occupancy
    0    -37.44155    2.00000
    1    -33.14528    2.00000
    2    -32.53137    2.00000
    3    -23.91087    2.00000
    4    -22.91254    2.00000
    5    -22.21444    2.00000
    6    -22.01325    2.00000
    7    -21.74864    2.00000
    8    -21.64946    2.00000
    9    -21.45338    2.00000
   10    -21.40141    2.00000
   11    -21.32072    2.00000
   12    -21.12252    2.00000
   13    -21.02712    2.00000
   14    -20.97367    2.00000
   15    -20.88086    2.00000
   16    -20.81744    2.00000
   17    -20.65548    2.00000
   18    -20.53948    2.00000
   19    -20.49416    2.00000
   20    -20.35368    2.00000
   21    -20.30471    2.00000
   22    -20.13079    2.00000
   23    -19.93871    2.00000
   24    -19.84461    2.00000
   25    -19.77613    2.00000
   26    -19.39474    2.00000
   27    -12.53086    2.00000
   28    -10.00919    2.00000
   29     -9.96557    2.00000
   30     -9.83014    2.00000
   31     -9.59375    2.00000
   32     -9.52162    2.00000
   33     -9.43137    2.00000
   34     -9.28826    2.00000
   35     -9.19752    2.00000
   36     -9.17495    2.00000
   37     -9.08845    2.00000
   38     -8.96249    2.00000
   39     -8.92140    2.00000
   40     -8.74773    2.00000
   41     -8.69278    2.00000
   42     -8.63724    2.00000
   43     -8.50527    2.00000
   44     -8.44153    2.00000
   45     -8.41843    2.00000
   46     -8.14952    2.00000
   47     -8.07364    2.00000
   48     -7.96674    2.00000
   49     -7.88686    2.00000
   50     -7.81338    2.00000
   51     -7.63457    2.00000
   52     -7.48443    2.00000
   53     -7.45400    2.00000
   54     -7.18524    2.00000
   55     -6.92185    2.00000
   56     -6.74104    2.00000
   57     -6.57417    2.00000
   58     -6.54308    2.00000
   59     -6.32415    2.00000
   60     -6.13285    2.00000
   61     -6.04599    2.00000
   62     -5.92434    2.00000
   63     -5.81975    2.00000
   64     -5.70028    2.00000
   65     -5.56914    2.00000
   66     -5.47322    2.00000
   67     -5.46397    2.00000
   68     -5.28928    2.00000
   69     -5.07437    2.00000
   70     -4.95759    2.00000
   71     -4.87999    2.00000
   72     -4.78717    2.00000
   73     -4.61936    2.00000
   74     -4.51323    2.00000
   75     -4.37517    2.00000
   76     -4.31049    2.00000
   77     -4.16472    2.00000
   78     -4.03685    2.00000
   79     -3.96133    2.00000
   80     -3.82616    2.00000
   81     -3.71238    2.00000
   82     -3.59038    2.00000
   83     -3.55060    2.00000
   84     -3.50643    2.00000
   85     -3.44487    2.00000
   86     -3.32548    2.00000
   87     -3.19335    2.00000
   88     -3.13825    2.00000
   89     -3.09732    2.00000
   90     -2.96184    2.00000
   91     -2.91941    2.00000
   92     -2.87474    2.00000
   93     -2.81250    2.00000
   94     -2.76794    2.00000
   95     -2.72693    2.00000
   96     -2.62102    2.00000
   97     -2.49850    2.00000
   98     -2.15462    2.00000
   99      1.44558    0.00000
  100      3.63770    0.00000
  101      3.69914    0.00000
  102      3.78713    0.00000
  103      4.03922    0.00000
  104      4.39001    0.00000
  105      4.91303    0.00000
  106      5.54235    0.00000
  107      5.56542    0.00000
  108      5.72404    0.00000
  109      6.00758    0.00000
  110      6.06795    0.00000
  111      6.19893    0.00000
  112      6.31039    0.00000
  113      6.41583    0.00000
  114      6.46732    0.00000
  115      6.64558    0.00000
  116      6.75912    0.00000
  117      7.12082    0.00000
  118      7.29536    0.00000
  119      7.37246    0.00000
  120      7.86096    0.00000
  121      7.92369    0.00000
  122      8.08654    0.00000

Gap: 3.600 eV
Transition (v -> c):
  (s=0, k=0, n=98, [0.00, 0.00, 0.00]) -> (s=0, k=0, n=99, [0.00, 0.00, 0.00])

Forces in eV/Ang:
  0 O     0.32206   -0.73209   -0.62102
  1 O    -1.35663    1.41480   -2.34550
  2 O    -0.54872   -1.26956    1.02002
  3 O    -0.00916   -0.46036    2.02026
  4 O    -0.26569    0.00713   -0.01681
  5 O    -2.76123    0.93049   -0.39907
  6 O    -0.32068    0.34331    1.63789
  7 O    -0.78647    0.23298    0.67703
  8 O     0.68887    0.20280   -0.81673
  9 O    -1.70133   -1.36810    1.15825
 10 O    19.04329    2.42010   16.05669
 11 O     0.36037   -1.07727    0.81516
 12 O    -1.56646   -0.35988    0.27711
 13 O     1.44472   -0.40887    0.05012
 14 O     0.36945   -0.34946    0.83144
 15 O    -1.37357   -0.70185   -0.96843
 16 O   -10.67985    4.35256   -6.28075
 17 O     2.05300   -1.80954    1.65622
 18 O    -0.36653   -0.54364    1.02233
 19 O    -1.38587    0.98037   -0.62480
 20 O     0.35150    0.09171    2.81389
 21 O    -0.25274   -0.08658   -1.11332
 22 O    -1.46491   -0.24173   -1.32546
 23 O    -0.46341   -0.99850   -0.77773
 24 H    -0.72244   -0.29977    0.66775
 25 H     0.20346    1.02085   -0.01178
 26 H     0.39864   -0.70074    0.88671
 27 H     1.28265   -0.07740    1.55335
 28 H    -0.31778    1.72396   -0.25870
 29 H     0.39116   -0.38864   -0.42889
 30 H     0.24352    0.33600   -1.29064
 31 H    -0.75330    0.25671   -0.68868
 32 H     0.11911    0.12418   -0.59502
 33 H     0.36663    0.00571    0.89607
 34 H     0.76126   -0.27635    0.52203
 35 H     1.75999   -0.34176   -0.54079
 36 H     0.33601   -0.22145   -1.47591
 37 H    -0.31757   -0.32749   -0.17177
 38 H     1.05502    0.24391    0.02644
 39 H     0.48963   -0.27034   -0.74772
 40 H    -1.30187   -0.43386    0.84583
 41 H     0.23177   -0.36614    0.13476
 42 H    -0.11182    1.10310   -0.84788
 43 H     1.52798    0.17581   -0.45469
 44 H     1.85493    3.41490   -0.49019
 45 H     1.72516   -1.07183    0.77395
 46 H    -0.32840    0.39377   -0.03487
 47 H     0.01788    0.37480   -0.51789
 48 H     0.93984   -0.27221   -0.06015
 49 H     0.83109    1.21621   -0.09837
 50 H    -0.66789    0.12693   -0.37582
 51 H    -0.33298    0.19752    0.33834
 52 H    -1.67774   -0.11477    0.09332
 53 H     1.01078    0.66591   -1.24667
 54 H     0.49957    0.76406    0.21036
 55 H     0.58348   -0.56211    0.84507
 56 H   -37.51969   35.90761  -30.65424
 57 H    -0.79798    1.18397   -2.35193
 58 H    -1.39555    1.27252   -0.76445
 59 H    -0.73086   -0.02908   -0.54350
 60 H    -0.10390    0.49482   -0.79921
 61 H     0.13656    0.19153   -0.40700
 62 H     0.15274   -1.68198    0.29542
 63 H     1.29589    0.67456    0.36075
 64 H     0.23095   -0.00781   -1.54213
 65 H    -0.40433   -0.40377   -1.10296
 66 H     0.19941    0.10219    0.30269
 67 H     0.13621   -0.18849    0.18869
 68 H     0.88115    1.35453    0.41090
 69 H     0.29549   -1.16390    0.36791
 70 H     0.41053    0.26656    0.15180
 71 H     0.49826    1.44066    0.84059
 72 Na   26.93506  -46.33224   22.93390

System changes: positions 

Initializing position-dependent things.

Density initialized from wave functions
       .---------------------.  
      /|                     |  
     / |     H               |  
    /  |     H             H |  
   /   | H  O              O |  
  / H OH       OHH    H      |  
 *H   H|      H O HHO        |  
 |     O      H   H  OH      |  
 | H  O| H   OH           H  |  
 |    H|  HHO  H    HH O     |  
 |     O   H      O O  HO    |  
 |     .Ha--H-O-H--H--H------.  
 |    /        H   O       H/   
 |   /H  OH  O     H       /    
 |  /  H     H            /     
 | /            HO       /      
 |/  OH            H    /       
 *---------------------*        

Positions:
   0 O      2.817230    5.587840    3.143870    ( 0.0000,  0.0000,  0.0000)
   1 O      3.097826    9.483393    3.086817    ( 0.0000,  0.0000,  0.0000)
   2 O      0.553969    5.697081    0.342451    ( 0.0000,  0.0000,  0.0000)
   3 O      3.936515    2.777812    1.807199    ( 0.0000,  0.0000,  0.0000)
   4 O      6.475031    3.278807    2.502163    ( 0.0000,  0.0000,  0.0000)
   5 O      4.454088    6.049663    5.300002    ( 0.0000,  0.0000,  0.0000)
   6 O      2.310535    9.373661    5.598663    ( 0.0000,  0.0000,  0.0000)
   7 O      5.798206    7.627129    1.605335    ( 0.0000,  0.0000,  0.0000)
   8 O      6.338823    1.348339    9.701654    ( 0.0000,  0.0000,  0.0000)
   9 O      2.583945    7.110970    7.059531    ( 0.0000,  0.0000,  0.0000)
  10 O      1.630979    9.169238    0.835718    ( 0.0000,  0.0000,  0.0000)
  11 O      1.505433    3.970647    6.006587    ( 0.0000,  0.0000,  0.0000)
  12 O      5.087421    2.971053   -0.970361    ( 0.0000,  0.0000,  0.0000)
  13 O      0.270787    5.874370    4.461817    ( 0.0000,  0.0000,  0.0000)
  14 O      1.298850    2.679872   -0.400084    ( 0.0000,  0.0000,  0.0000)
  15 O      5.268440    8.402360    4.142206    ( 0.0000,  0.0000,  0.0000)
  16 O     -0.779735    0.441800   -0.785809    ( 0.0000,  0.0000,  0.0000)
  17 O      6.542062    4.847266    6.313624    ( 0.0000,  0.0000,  0.0000)
  18 O      3.975983    2.641783    5.720217    ( 0.0000,  0.0000,  0.0000)
  19 O     -0.346504   10.603468    5.992145    ( 0.0000,  0.0000,  0.0000)
  20 O     -0.244957    6.810590   -1.928288    ( 0.0000,  0.0000,  0.0000)
  21 O      3.209706    7.271786    0.766570    ( 0.0000,  0.0000,  0.0000)
  22 O      7.730694    5.630899    2.428943    ( 0.0000,  0.0000,  0.0000)
  23 O     -2.696934   10.717354    4.755888    ( 0.0000,  0.0000,  0.0000)
  24 H      1.960307    6.011885    3.404551    ( 0.0000,  0.0000,  0.0000)
  25 H      2.616539    4.604080    3.084284    ( 0.0000,  0.0000,  0.0000)
  26 H      3.323948   10.386195    2.563916    ( 0.0000,  0.0000,  0.0000)
  27 H      2.380226    9.237814    2.373188    ( 0.0000,  0.0000,  0.0000)
  28 H      0.825345    4.693566    0.361932    ( 0.0000,  0.0000,  0.0000)
  29 H     -0.131609    5.768502    1.147145    ( 0.0000,  0.0000,  0.0000)
  30 H      4.090925    3.199806    0.948372    ( 0.0000,  0.0000,  0.0000)
  31 H      4.842051    2.935280    2.276766    ( 0.0000,  0.0000,  0.0000)
  32 H      6.568559    2.483473    1.899590    ( 0.0000,  0.0000,  0.0000)
  33 H      6.403456    2.759296    3.377404    ( 0.0000,  0.0000,  0.0000)
  34 H      3.883475    5.853438    4.460308    ( 0.0000,  0.0000,  0.0000)
  35 H      3.618016    6.301691    5.913641    ( 0.0000,  0.0000,  0.0000)
  36 H      2.473568    9.612221    4.654224    ( 0.0000,  0.0000,  0.0000)
  37 H      1.589696   10.011486    5.836286    ( 0.0000,  0.0000,  0.0000)
  38 H      5.552598    7.832236    2.589052    ( 0.0000,  0.0000,  0.0000)
  39 H      4.843411    7.431006    1.335769    ( 0.0000,  0.0000,  0.0000)
  40 H      7.113300    1.217091    9.043373    ( 0.0000,  0.0000,  0.0000)
  41 H      6.015768    0.432548    9.943249    ( 0.0000,  0.0000,  0.0000)
  42 H      2.690486    7.985942    6.636500    ( 0.0000,  0.0000,  0.0000)
  43 H      1.525183    6.934928    7.074750    ( 0.0000,  0.0000,  0.0000)
  44 H      1.842452   10.027789    0.540852    ( 0.0000,  0.0000,  0.0000)
  45 H      2.340606    8.507701    0.570203    ( 0.0000,  0.0000,  0.0000)
  46 H      2.396377    3.633848    5.692209    ( 0.0000,  0.0000,  0.0000)
  47 H      1.070453    4.581287    5.364381    ( 0.0000,  0.0000,  0.0000)
  48 H      5.673235    3.676147   -1.360558    ( 0.0000,  0.0000,  0.0000)
  49 H      5.438000    2.095689   -0.546226    ( 0.0000,  0.0000,  0.0000)
  50 H      0.105307    6.385059    5.287634    ( 0.0000,  0.0000,  0.0000)
  51 H     -0.461355    5.820358    3.768738    ( 0.0000,  0.0000,  0.0000)
  52 H      0.360343    2.640879   -0.617691    ( 0.0000,  0.0000,  0.0000)
  53 H      1.507284    3.176633   -1.229643    ( 0.0000,  0.0000,  0.0000)
  54 H      4.900575    7.494443    4.546647    ( 0.0000,  0.0000,  0.0000)
  55 H      4.455599    8.839047    3.638253    ( 0.0000,  0.0000,  0.0000)
  56 H      0.110365    0.407779   -0.314478    ( 0.0000,  0.0000,  0.0000)
  57 H     -0.576509    1.002253   -1.573282    ( 0.0000,  0.0000,  0.0000)
  58 H      5.856846    5.406974    5.970332    ( 0.0000,  0.0000,  0.0000)
  59 H      7.251451    5.410165    6.733441    ( 0.0000,  0.0000,  0.0000)
  60 H      4.370103    2.682540    6.736875    ( 0.0000,  0.0000,  0.0000)
  61 H      3.450522    1.773085    5.844788    ( 0.0000,  0.0000,  0.0000)
  62 H     -1.284330   10.925273    5.586807    ( 0.0000,  0.0000,  0.0000)
  63 H      0.072508   11.477973    5.797876    ( 0.0000,  0.0000,  0.0000)
  64 H     -0.131634    6.299870   -0.979064    ( 0.0000,  0.0000,  0.0000)
  65 H     -0.591343    7.684369   -1.533789    ( 0.0000,  0.0000,  0.0000)
  66 H      3.071511    6.954286   -0.207634    ( 0.0000,  0.0000,  0.0000)
  67 H      2.742362    6.597257    1.337361    ( 0.0000,  0.0000,  0.0000)
  68 H      7.159746    4.691585    2.326379    ( 0.0000,  0.0000,  0.0000)
  69 H      7.087653    6.405388    2.150268    ( 0.0000,  0.0000,  0.0000)
  70 H     -3.627726   11.038224    5.096605    ( 0.0000,  0.0000,  0.0000)
  71 H     -2.944716    9.714474    4.455813    ( 0.0000,  0.0000,  0.0000)
  72 Na     0.501433   -0.002462    0.001336    ( 0.0000,  0.0000,  0.0000)

Unit cell:
           periodic     x           y           z      points  spacing
  1. axis:    yes    8.956370    0.000000    0.000000    44     0.2036
  2. axis:    yes    0.000000    8.956370    0.000000    44     0.2036
  3. axis:    yes    0.000000    0.000000    8.956370    44     0.2036

  Lengths:   8.956370   8.956370   8.956370
  Angles:   90.000000  90.000000  90.000000

Effective grid spacing dv^(1/3) = 0.2036

                     log10-error:    total        iterations:
           time      wfs    density  energy       fermi  poisson
iter:   1  22:38:51          +inf  -307.222778    2      1      
iter:   2  22:38:51         -2.38  -307.207471    1      1      
iter:   3  22:38:52         -2.43  -307.157554    1      1      
iter:   4  22:38:53         -2.68  -307.152041    1      1      
iter:   5  22:38:54         -3.20  -307.151772    1      1      
iter:   6  22:38:55         -3.27  -307.151399    1      1      
iter:   7  22:38:55         -3.69  -307.151350    1      1      
iter:   8  22:38:56         -4.16  -307.151347    1      1      

Converged after 8 iterations.

Dipole moment: (7.166417, -18.876100, 5.764890) |e|*Ang

Energy contributions relative to reference atoms: (reference = -53998.593513)

Kinetic:       +382.781186
Potential:     -386.045193
External:        +0.000000
XC:            -313.329704
Entropy (-ST):   -0.000000
Local:           +9.442363
--------------------------
Free energy:   -307.151347
Extrapolated:  -307.151347

Fermi level: -0.34434

 Band  Eigenvalues  Occupancy
    0    -35.71309    2.00000
    1    -31.51042    2.00000
    2    -30.82513    2.00000
    3    -23.81560    2.00000
    4    -22.90059    2.00000
    5    -22.26183    2.00000
    6    -22.02439    2.00000
    7    -21.78131    2.00000
    8    -21.70128    2.00000
    9    -21.48305    2.00000
   10    -21.45717    2.00000
   11    -21.33904    2.00000
   12    -21.15541    2.00000
   13    -21.08779    2.00000
   14    -21.03375    2.00000
   15    -20.93384    2.00000
   16    -20.82676    2.00000
   17    -20.75062    2.00000
   18    -20.64682    2.00000
   19    -20.50852    2.00000
   20    -20.47722    2.00000
   21    -20.36835    2.00000
   22    -20.17529    2.00000
   23    -19.92903    2.00000
   24    -19.91768    2.00000
   25    -19.84181    2.00000
   26    -19.38362    2.00000
   27    -12.38200    2.00000
   28    -10.08480    2.00000
   29     -9.92240    2.00000
   30     -9.88565    2.00000
   31     -9.64803    2.00000
   32     -9.57171    2.00000
   33     -9.42782    2.00000
   34     -9.33815    2.00000
   35     -9.30506    2.00000
   36     -9.17709    2.00000
   37     -9.15045    2.00000
   38     -9.01187    2.00000
   39     -8.97851    2.00000
   40     -8.81542    2.00000
   41     -8.74278    2.00000
   42     -8.65510    2.00000
   43     -8.49173    2.00000
   44     -8.46092    2.00000
   45     -8.38689    2.00000
   46     -8.22172    2.00000
   47     -8.07676    2.00000
   48     -7.95825    2.00000
   49     -7.88418    2.00000
   50     -7.79926    2.00000
   51     -7.61231    2.00000
   52     -7.54100    2.00000
   53     -7.46530    2.00000
   54     -7.23632    2.00000
   55     -7.01097    2.00000
   56     -6.73959    2.00000
   57     -6.68312    2.00000
   58     -6.52077    2.00000
   59     -6.39213    2.00000
   60     -6.13320    2.00000
   61     -6.06710    2.00000
   62     -5.94869    2.00000
   63     -5.81722    2.00000
   64     -5.73908    2.00000
   65     -5.57594    2.00000
   66     -5.50222    2.00000
   67     -5.45938    2.00000
   68     -5.26471    2.00000
   69     -5.09711    2.00000
   70     -4.98527    2.00000
   71     -4.95429    2.00000
   72     -4.79708    2.00000
   73     -4.61008    2.00000
   74     -4.49942    2.00000
   75     -4.43580    2.00000
   76     -4.31012    2.00000
   77     -4.21520    2.00000
   78     -4.03827    2.00000
   79     -3.95421    2.00000
   80     -3.81264    2.00000
   81     -3.73642    2.00000
   82     -3.60556    2.00000
   83     -3.59924    2.00000
   84     -3.56541    2.00000
   85     -3.49350    2.00000
   86     -3.34914    2.00000
   87     -3.17745    2.00000
   88     -3.13100    2.00000
   89     -3.09454    2.00000
   90     -3.05441    2.00000
   91     -2.94786    2.00000
   92     -2.89227    2.00000
   93     -2.83276    2.00000
   94     -2.80409    2.00000
   95     -2.73024    2.00000
   96     -2.62633    2.00000
   97     -2.50204    2.00000
   98     -2.19441    2.00000
   99      1.49897    0.00000
  100      3.69839    0.00000
  101      3.70714    0.00000
  102      3.82382    0.00000
  103      4.05766    0.00000
  104      4.41113    0.00000
  105      4.91505    0.00000
  106      5.58269    0.00000
  107      5.59750    0.00000
  108      5.75252    0.00000
  109      6.03018    0.00000
  110      6.10223    0.00000
  111      6.20357    0.00000
  112      6.31053    0.00000
  113      6.44753    0.00000
  114      6.47118    0.00000
  115      6.66229    0.00000
  116      6.76774    0.00000
  117      7.11420    0.00000
  118      7.30483    0.00000
  119      7.40129    0.00000
  120      7.89165    0.00000
  121      7.97272    0.00000
  122      8.11941    0.00000

Gap: 3.693 eV
Transition (v -> c):
  (s=0, k=0, n=98, [0.00, 0.00, 0.00]) -> (s=0, k=0, n=99, [0.00, 0.00, 0.00])

Forces in eV/Ang:
  0 O     0.28302   -0.41094   -0.56139
  1 O    -1.05003    1.65547   -2.00081
  2 O    -0.35915   -1.05769    0.84844
  3 O    -0.19101   -0.41265    1.65484
  4 O    -0.25244    0.07029    0.37495
  5 O    -2.61834    1.01543   -0.17348
  6 O    -0.20368    0.37040    1.34594
  7 O    -0.56946    0.31702    0.71215
  8 O     0.30035    0.42878   -0.60750
  9 O    -1.81906   -1.49531    1.19923
 10 O    18.77252    2.38697   16.11764
 11 O     0.07908   -1.15936    1.23199
 12 O    -1.52733   -0.89599    0.57592
 13 O     1.72206   -0.49115    0.08219
 14 O     0.32921   -0.27277    0.64251
 15 O    -1.29824   -0.73396   -0.89870
 16 O   -10.66320    4.33592   -6.21680
 17 O     2.29070   -2.07218    1.76929
 18 O    -0.51897   -0.89289    1.22609
 19 O    -1.16335    1.03027   -0.49410
 20 O     0.18490    0.32310    2.55551
 21 O    -0.24110   -0.15573   -1.13648
 22 O    -1.45159   -0.19005   -1.33287
 23 O    -0.48191   -0.88681   -0.70369
 24 H    -0.69628   -0.20192    0.65144
 25 H     0.21552    0.63238   -0.05552
 26 H     0.45360   -0.71557    0.92713
 27 H     0.93889   -0.27914    1.17311
 28 H    -0.36539    1.61948   -0.19069
 29 H     0.30246   -0.55124   -0.33199
 30 H     0.15727    0.25702   -1.17259
 31 H    -0.52368    0.28480   -0.43009
 32 H     0.20197   -0.09842   -0.88799
 33 H     0.30195    0.20163    0.81498
 34 H     0.65358   -0.39080    0.25582
 35 H     1.75071   -0.30489   -0.49568
 36 H     0.35037   -0.31124   -1.30158
 37 H    -0.44448   -0.26181   -0.05103
 38 H     0.91950    0.20937   -0.04962
 39 H     0.37250   -0.28558   -0.69392
 40 H    -0.79879   -0.49950    0.56409
 41 H     0.12776   -0.57679    0.16249
 42 H    -0.18861    1.10806   -0.83973
 43 H     1.72338    0.29907   -0.50935
 44 H     1.87821    3.60803   -0.58303
 45 H     1.77967   -1.11513    0.75596
 46 H     0.24891    0.14499   -0.17884
 47 H    -0.30265    0.70492   -0.81702
 48 H     1.03656   -0.12911   -0.18040
 49 H     0.63988    1.55375   -0.23012
 50 H    -0.70718    0.22949   -0.21970
 51 H    -0.55990    0.16691    0.15688
 52 H    -1.68415   -0.10526    0.13645
 53 H     1.03643    0.61244   -1.09659
 54 H     0.43954    0.89500    0.13980
 55 H     0.51835   -0.69329    0.81691
 56 H   -33.58831   31.55630  -25.80071
 57 H    -0.80542    1.24235   -2.50751
 58 H    -1.78075    1.50165   -0.95813
 59 H    -0.56453   -0.00006   -0.47401
 60 H    -0.08041    0.59315   -0.94410
 61 H     0.30673    0.45969   -0.48134
 62 H     0.09031   -1.57060    0.21622
 63 H     1.15006    0.53665    0.35801
 64 H     0.30043   -0.17278   -1.24997
 65 H    -0.30175   -0.45113   -1.16534
 66 H     0.19879    0.12537    0.35300
 67 H     0.14513   -0.17718    0.17709
 68 H     0.84375    1.38618    0.47948
 69 H     0.30761   -1.19245    0.32819
 70 H     0.44202    0.27077    0.10559
 71 H     0.53684    1.31291    0.80133
 72 Na   23.12306  -42.04192   18.16848

System changes: positions 

Initializing position-dependent things.

Density initialized from wave functions
       .---------------------.  
      /|                     |  
     / |     H               |  
    /  |     H             H |  
   /   | H  O              O |  
  / H OH       OHH    H      |  
 *    H|      H O HHO  H     |  
 |     O      H   H  OH      |  
 | H  O| H   OH           H  |  
 |    H|  HHO  H    HH O     |  
 |     O  H       O O  HO    |  
 |     .Ha--H-O-H--H--H------.  
 |    /        H   O       H/   
 |   /H  OH  O     H       /    
 |  /  H     H            /     
 | /            HO       /      
 |/  OH            H    /       
 *---------------------*        

Positions:
   0 O      2.815107    5.583907    3.141635    ( 0.0000,  0.0000,  0.0000)
   1 O      3.095576    9.481559    3.083548    ( 0.0000,  0.0000,  0.0000)
   2 O      0.551713    5.697019    0.343212    ( 0.0000,  0.0000,  0.0000)
   3 O      3.936566    2.778218    1.810555    ( 0.0000,  0.0000,  0.0000)
   4 O      6.471016    3.277489    2.501304    ( 0.0000,  0.0000,  0.0000)
   5 O      4.452251    6.048508    5.301890    ( 0.0000,  0.0000,  0.0000)
   6 O      2.310768    9.371631    5.597435    ( 0.0000,  0.0000,  0.0000)
   7 O      5.796063    7.628368    1.605109    ( 0.0000,  0.0000,  0.0000)
   8 O      6.339675    1.349223    9.701144    ( 0.0000,  0.0000,  0.0000)
   9 O      2.586388    7.113726    7.063707    ( 0.0000,  0.0000,  0.0000)
  10 O      1.636224    9.171020    0.841675    ( 0.0000,  0.0000,  0.0000)
  11 O      1.508206    3.968893    6.008068    ( 0.0000,  0.0000,  0.0000)
  12 O      5.086025    2.967911   -0.971049    ( 0.0000,  0.0000,  0.0000)
  13 O      0.267043    5.875353    4.459937    ( 0.0000,  0.0000,  0.0000)
  14 O      1.301999    2.677576   -0.401852    ( 0.0000,  0.0000,  0.0000)
  15 O      5.271085    8.400659    4.142933    ( 0.0000,  0.0000,  0.0000)
  16 O     -0.782971    0.442578   -0.789790    ( 0.0000,  0.0000,  0.0000)
  17 O      6.544661    4.847280    6.312092    ( 0.0000,  0.0000,  0.0000)
  18 O      3.980399    2.644605    5.719308    ( 0.0000,  0.0000,  0.0000)
  19 O     -0.349495   10.603470    5.987036    ( 0.0000,  0.0000,  0.0000)
  20 O     -0.245000    6.809496   -1.921589    ( 0.0000,  0.0000,  0.0000)
  21 O      3.211344    7.272644    0.766758    ( 0.0000,  0.0000,  0.0000)
  22 O      7.730775    5.635284    2.428638    ( 0.0000,  0.0000,  0.0000)
  23 O     -2.699744   10.716632    4.753197    ( 0.0000,  0.0000,  0.0000)
  24 H      1.952577    5.998541    3.405438    ( 0.0000,  0.0000,  0.0000)
  25 H      2.609365    4.612362    3.085396    ( 0.0000,  0.0000,  0.0000)
  26 H      3.314586   10.386332    2.562678    ( 0.0000,  0.0000,  0.0000)
  27 H      2.383145    9.246507    2.392275    ( 0.0000,  0.0000,  0.0000)
  28 H      0.832081    4.705049    0.368096    ( 0.0000,  0.0000,  0.0000)
  29 H     -0.117533    5.795453    1.144999    ( 0.0000,  0.0000,  0.0000)
  30 H      4.093700    3.198612    0.944428    ( 0.0000,  0.0000,  0.0000)
  31 H      4.839050    2.933973    2.262026    ( 0.0000,  0.0000,  0.0000)
  32 H      6.563462    2.491221    1.904590    ( 0.0000,  0.0000,  0.0000)
  33 H      6.418391    2.735190    3.375032    ( 0.0000,  0.0000,  0.0000)
  34 H      3.885174    5.865951    4.470982    ( 0.0000,  0.0000,  0.0000)
  35 H      3.621395    6.297467    5.914629    ( 0.0000,  0.0000,  0.0000)
  36 H      2.476760    9.609051    4.644523    ( 0.0000,  0.0000,  0.0000)
  37 H      1.602442   10.023106    5.822088    ( 0.0000,  0.0000,  0.0000)
  38 H      5.575146    7.838425    2.595016    ( 0.0000,  0.0000,  0.0000)
  39 H      4.842132    7.442179    1.335139    ( 0.0000,  0.0000,  0.0000)
  40 H      7.080838    1.230658    9.039623    ( 0.0000,  0.0000,  0.0000)
  41 H      6.027642    0.434752    9.947622    ( 0.0000,  0.0000,  0.0000)
  42 H      2.701962    7.988792    6.636459    ( 0.0000,  0.0000,  0.0000)
  43 H      1.525666    6.933540    7.087585    ( 0.0000,  0.0000,  0.0000)
  44 H      1.847318   10.030344    0.532571    ( 0.0000,  0.0000,  0.0000)
  45 H      2.337087    8.509440    0.563851    ( 0.0000,  0.0000,  0.0000)
  46 H      2.383682    3.643484    5.691912    ( 0.0000,  0.0000,  0.0000)
  47 H      1.089426    4.575839    5.367761    ( 0.0000,  0.0000,  0.0000)
  48 H      5.671892    3.678285   -1.340420    ( 0.0000,  0.0000,  0.0000)
  49 H      5.449883    2.092025   -0.534088    ( 0.0000,  0.0000,  0.0000)
  50 H      0.106935    6.386935    5.280499    ( 0.0000,  0.0000,  0.0000)
  51 H     -0.457544    5.831152    3.769610    ( 0.0000,  0.0000,  0.0000)
  52 H      0.361627    2.643604   -0.632379    ( 0.0000,  0.0000,  0.0000)
  53 H      1.515222    3.168380   -1.241546    ( 0.0000,  0.0000,  0.0000)
  54 H      4.911018    7.488088    4.550062    ( 0.0000,  0.0000,  0.0000)
  55 H      4.465137    8.850943    3.648373    ( 0.0000,  0.0000,  0.0000)
  56 H     -0.020934    0.528104   -0.398349    ( 0.0000,  0.0000,  0.0000)
  57 H     -0.571345    1.005520   -1.579478    ( 0.0000,  0.0000,  0.0000)
  58 H      5.863015    5.418365    5.986303    ( 0.0000,  0.0000,  0.0000)
  59 H      7.241507    5.409205    6.742143    ( 0.0000,  0.0000,  0.0000)
  60 H      4.367406    2.669827    6.745397    ( 0.0000,  0.0000,  0.0000)
  61 H      3.448611    1.770128    5.841627    ( 0.0000,  0.0000,  0.0000)
  62 H     -1.284629   10.919046    5.593177    ( 0.0000,  0.0000,  0.0000)
  63 H      0.088680   11.475481    5.794317    ( 0.0000,  0.0000,  0.0000)
  64 H     -0.143422    6.303988   -0.995313    ( 0.0000,  0.0000,  0.0000)
  65 H     -0.610556    7.674851   -1.525935    ( 0.0000,  0.0000,  0.0000)
  66 H      3.075172    6.952803   -0.206507    ( 0.0000,  0.0000,  0.0000)
  67 H      2.745221    6.598168    1.339361    ( 0.0000,  0.0000,  0.0000)
  68 H      7.172683    4.700749    2.309645    ( 0.0000,  0.0000,  0.0000)
  69 H      7.085195    6.407003    2.160112    ( 0.0000,  0.0000,  0.0000)
  70 H     -3.628851   11.043782    5.101303    ( 0.0000,  0.0000,  0.0000)
  71 H     -2.952570    9.722983    4.461399    ( 0.0000,  0.0000,  0.0000)
  72 Na     0.505291   -0.009335    0.004577    ( 0.0000,  0.0000,  0.0000)

Unit cell:
           periodic     x           y           z      points  spacing
  1. axis:    yes    8.956370    0.000000    0.000000    44     0.2036
  2. axis:    yes    0.000000    8.956370    0.000000    44     0.2036
  3. axis:    yes    0.000000    0.000000    8.956370    44     0.2036

  Lengths:   8.956370   8.956370   8.956370
  Angles:   90.000000  90.000000  90.000000

Effective grid spacing dv^(1/3) = 0.2036

                     log10-error:    total        iterations:
           time      wfs    density  energy       fermi  poisson
iter:   1  22:38:58          +inf  -315.845076    1      1      
iter:   2  22:38:59         -2.20  -315.790228    0      1      
iter:   3  22:39:00         -2.25  -315.598808    1      1      
iter:   4  22:39:01         -2.50  -315.576442    1      1      
iter:   5  22:39:01         -2.89  -315.572879    1      1      
iter:   6  22:39:02         -3.03  -315.571201    1      1      
iter:   7  22:39:03         -3.49  -315.571145    0      1      
iter:   8  22:39:04         -3.55  -315.571021    1      1      
iter:   9  22:39:04         -4.08  -315.571019    0      1      

Converged after 9 iterations.

Dipole moment: (9.145912, -18.647080, 5.447767) |e|*Ang

Energy contributions relative to reference atoms: (reference = -53998.593513)

Kinetic:       +381.035574
Potential:     -391.350727
External:        +0.000000
XC:            -314.592552
Entropy (-ST):   -0.000000
Local:           +9.336686
--------------------------
Free energy:   -315.571019
Extrapolated:  -315.571019

Fermi level: -0.32244

 Band  Eigenvalues  Occupancy
    0    -32.10008    2.00000
    1    -28.25962    2.00000
    2    -27.41469    2.00000
    3    -23.98931    2.00000
    4    -22.86137    2.00000
    5    -22.24495    2.00000
    6    -21.96314    2.00000
    7    -21.79592    2.00000
    8    -21.71007    2.00000
    9    -21.63485    2.00000
   10    -21.47125    2.00000
   11    -21.30885    2.00000
   12    -21.18330    2.00000
   13    -21.15605    2.00000
   14    -21.12090    2.00000
   15    -20.99844    2.00000
   16    -20.91037    2.00000
   17    -20.85601    2.00000
   18    -20.79628    2.00000
   19    -20.55985    2.00000
   20    -20.51156    2.00000
   21    -20.44203    2.00000
   22    -20.22553    2.00000
   23    -20.03082    2.00000
   24    -19.94456    2.00000
   25    -19.89362    2.00000
   26    -19.42451    2.00000
   27    -11.92819    2.00000
   28    -10.78917    2.00000
   29     -9.98101    2.00000
   30     -9.93974    2.00000
   31     -9.77525    2.00000
   32     -9.62246    2.00000
   33     -9.49776    2.00000
   34     -9.43573    2.00000
   35     -9.39466    2.00000
   36     -9.22252    2.00000
   37     -9.15909    2.00000
   38     -9.09516    2.00000
   39     -9.00596    2.00000
   40     -8.94860    2.00000
   41     -8.76744    2.00000
   42     -8.66317    2.00000
   43     -8.56188    2.00000
   44     -8.51294    2.00000
   45     -8.41680    2.00000
   46     -8.26934    2.00000
   47     -8.19264    2.00000
   48     -8.08687    2.00000
   49     -7.93808    2.00000
   50     -7.83074    2.00000
   51     -7.75589    2.00000
   52     -7.62013    2.00000
   53     -7.45868    2.00000
   54     -7.31201    2.00000
   55     -7.01603    2.00000
   56     -6.84669    2.00000
   57     -6.70673    2.00000
   58     -6.57971    2.00000
   59     -6.43282    2.00000
   60     -6.17797    2.00000
   61     -6.13635    2.00000
   62     -5.94781    2.00000
   63     -5.90786    2.00000
   64     -5.76061    2.00000
   65     -5.58766    2.00000
   66     -5.53220    2.00000
   67     -5.42890    2.00000
   68     -5.26741    2.00000
   69     -5.16811    2.00000
   70     -5.10780    2.00000
   71     -4.93768    2.00000
   72     -4.82122    2.00000
   73     -4.58508    2.00000
   74     -4.53234    2.00000
   75     -4.37152    2.00000
   76     -4.29293    2.00000
   77     -4.15781    2.00000
   78     -4.06106    2.00000
   79     -3.90658    2.00000
   80     -3.81514    2.00000
   81     -3.76239    2.00000
   82     -3.72367    2.00000
   83     -3.69637    2.00000
   84     -3.57241    2.00000
   85     -3.52530    2.00000
   86     -3.38419    2.00000
   87     -3.20837    2.00000
   88     -3.16530    2.00000
   89     -3.12649    2.00000
   90     -3.08861    2.00000
   91     -2.98224    2.00000
   92     -2.92287    2.00000
   93     -2.87438    2.00000
   94     -2.83635    2.00000
   95     -2.75038    2.00000
   96     -2.67668    2.00000
   97     -2.53586    2.00000
   98     -2.24774    2.00000
   99      1.59474    0.00000
  100      3.68665    0.00000
  101      3.81027    0.00000
  102      3.91079    0.00000
  103      4.09919    0.00000
  104      4.44629    0.00000
  105      4.89813    0.00000
  106      5.61621    0.00000
  107      5.65639    0.00000
  108      5.80992    0.00000
  109      6.04083    0.00000
  110      6.15957    0.00000
  111      6.23054    0.00000
  112      6.32625    0.00000
  113      6.46208    0.00000
  114      6.52488    0.00000
  115      6.66701    0.00000
  116      6.78498    0.00000
  117      7.09592    0.00000
  118      7.30080    0.00000
  119      7.44561    0.00000
  120      7.91054    0.00000
  121      8.00798    0.00000
  122      8.14678    0.00000

Gap: 3.842 eV
Transition (v -> c):
  (s=0, k=0, n=98, [0.00, 0.00, 0.00]) -> (s=0, k=0, n=99, [0.00, 0.00, 0.00])

Forces in eV/Ang:
  0 O     0.21508    0.03879   -0.45305
  1 O    -0.56063    1.87799   -1.42861
  2 O    -0.20461   -0.77310    0.63926
  3 O    -0.38509   -0.30705    1.14102
  4 O    -0.22351    0.08644    0.81079
  5 O    -2.33946    1.07101    0.05524
  6 O    -0.07367    0.43818    0.96624
  7 O    -0.31867    0.40848    0.74065
  8 O    -0.16592    0.60406   -0.30470
  9 O    -1.80935   -1.46295    1.13624
 10 O    18.84805    2.92646   16.06231
 11 O    -0.30720   -1.19908    1.61424
 12 O    -1.43007   -1.28247    0.78590
 13 O     1.96192   -0.58606    0.12217
 14 O     0.11630   -0.13528    0.26649
 15 O    -1.13963   -0.75576   -0.79150
 16 O   -15.58369    3.43932   -8.89320
 17 O     2.20748   -2.15113    1.69907
 18 O    -0.62369   -1.17664    1.38715
 19 O    -0.88960    1.06051   -0.28155
 20 O    -0.03933    0.65376    2.11763
 21 O    -0.16847   -0.28979   -1.10417
 22 O    -1.38044   -0.16878   -1.29512
 23 O    -0.44523   -0.70409   -0.57657
 24 H    -0.60834   -0.13044    0.61127
 25 H     0.20247    0.15455   -0.10709
 26 H     0.50698   -0.70294    0.93293
 27 H     0.41062   -0.52212    0.56544
 28 H    -0.38315    1.39197   -0.12104
 29 H     0.20632   -0.66621   -0.21488
 30 H     0.04568    0.11431   -0.91572
 31 H    -0.24600    0.31094   -0.16498
 32 H     0.27158   -0.30638   -1.12504
 33 H     0.23658    0.41131    0.65655
 34 H     0.49190   -0.50447   -0.06470
 35 H     1.64210   -0.24292   -0.38419
 36 H     0.35306   -0.42923   -1.05102
 37 H    -0.51722   -0.22380    0.04512
 38 H     0.76262    0.16998   -0.14150
 39 H     0.22434   -0.29726   -0.63114
 40 H    -0.27208   -0.50505    0.25171
 41 H     0.02725   -0.77531    0.20917
 42 H    -0.29579    0.95990   -0.74656
 43 H     1.84954    0.40671   -0.53452
 44 H     1.68718    3.13755   -0.50725
 45 H     1.64599   -0.99150    0.75164
 46 H     0.90035   -0.12670   -0.34538
 47 H    -0.57743    0.98695   -1.04227
 48 H     1.08366   -0.01024   -0.26074
 49 H     0.41357    1.80100   -0.31291
 50 H    -0.73315    0.33349   -0.05477
 51 H    -0.76701    0.13223   -0.02761
 52 H    -1.44825   -0.02409    0.20603
 53 H     0.99127    0.49353   -0.82911
 54 H     0.37841    0.98273    0.07989
 55 H     0.39838   -0.77715    0.75101
 56 H   -13.36003   17.97808  -10.59855
 57 H    -1.00264    1.28807   -2.83529
 58 H    -1.90182    1.52009   -0.99079
 59 H    -0.34393    0.06310   -0.36744
 60 H    -0.05575    0.67978   -1.06924
 61 H     0.43591    0.65739   -0.54065
 62 H    -0.03167   -1.40895    0.09902
 63 H     0.95946    0.33939    0.38260
 64 H     0.39250   -0.38081   -0.81980
 65 H    -0.15467   -0.57437   -1.19395
 66 H     0.18337    0.14407    0.38285
 67 H     0.15901   -0.14144    0.14699
 68 H     0.77835    1.36990    0.53645
 69 H     0.28316   -1.15601    0.26765
 70 H     0.43866    0.28427    0.06768
 71 H     0.54500    1.10341    0.72630
 72 Na    8.18225  -27.70249    5.85216

System changes: positions 

Initializing position-dependent things.

Density initialized from wave functions
       .---------------------.  
      /|                     |  
     / |     H               |  
    /  |     H             H |  
   /   | H  O              O |  
  / H OH       OHH    H      |  
 *    H|      H O HHO  H     |  
 |     O      H   H  OH      |  
 | H  O| H   OH           H  |  
 |    H|  HHO  H    HH O     |  
 |     O  H       O O  HO    |  
 |     .Ha--H-O-H--H--H------.  
 |    /        H   O       H/   
 |   /H  OH  O     H       /    
 |  /  H     H            /     
 | /            HO       /      
 |/  OH            H    /       
 *---------------------*        

Positions:
   0 O      2.813020    5.579987    3.139336    ( 0.0000,  0.0000,  0.0000)
   1 O      3.093246    9.480011    3.080069    ( 0.0000,  0.0000,  0.0000)
   2 O      0.549430    5.696841    0.344069    ( 0.0000,  0.0000,  0.0000)
   3 O      3.936559    2.778577    1.814076    ( 0.0000,  0.0000,  0.0000)
   4 O      6.466973    3.276187    2.500568    ( 0.0000,  0.0000,  0.0000)
   5 O      4.450065    6.047515    5.303783    ( 0.0000,  0.0000,  0.0000)
   6 O      2.310989    9.369670    5.596354    ( 0.0000,  0.0000,  0.0000)
   7 O      5.793875    7.629667    1.604995    ( 0.0000,  0.0000,  0.0000)
   8 O      6.340501    1.350196    9.700588    ( 0.0000,  0.0000,  0.0000)
   9 O      2.588555    7.116258    7.068047    ( 0.0000,  0.0000,  0.0000)
  10 O      1.644300    9.173239    0.850041    ( 0.0000,  0.0000,  0.0000)
  11 O      1.510927    3.966962    6.009790    ( 0.0000,  0.0000,  0.0000)
  12 O      5.084416    2.964581   -0.971617    ( 0.0000,  0.0000,  0.0000)
  13 O      0.263600    5.876247    4.458080    ( 0.0000,  0.0000,  0.0000)
  14 O      1.305161    2.675264   -0.403576    ( 0.0000,  0.0000,  0.0000)
  15 O      5.273554    8.398847    4.143540    ( 0.0000,  0.0000,  0.0000)
  16 O     -0.788550    0.443873   -0.795103    ( 0.0000,  0.0000,  0.0000)
  17 O      6.547589    4.846970    6.310819    ( 0.0000,  0.0000,  0.0000)
  18 O      3.984715    2.647246    5.718610    ( 0.0000,  0.0000,  0.0000)
  19 O     -0.352615   10.603632    5.981893    ( 0.0000,  0.0000,  0.0000)
  20 O     -0.245049    6.808501   -1.914583    ( 0.0000,  0.0000,  0.0000)
  21 O      3.212954    7.273458    0.766778    ( 0.0000,  0.0000,  0.0000)
  22 O      7.730649    5.639635    2.428139    ( 0.0000,  0.0000,  0.0000)
  23 O     -2.702616   10.715806    4.750424    ( 0.0000,  0.0000,  0.0000)
  24 H      1.943405    5.984909    3.407786    ( 0.0000,  0.0000,  0.0000)
  25 H      2.602687    4.620999    3.086251    ( 0.0000,  0.0000,  0.0000)
  26 H      3.306452   10.384788    2.563673    ( 0.0000,  0.0000,  0.0000)
  27 H      2.387041    9.253937    2.412681    ( 0.0000,  0.0000,  0.0000)
  28 H      0.837889    4.719840    0.373961    ( 0.0000,  0.0000,  0.0000)
  29 H     -0.102988    5.820765    1.142344    ( 0.0000,  0.0000,  0.0000)
  30 H      4.096579    3.197693    0.938303    ( 0.0000,  0.0000,  0.0000)
  31 H      4.835467    2.933411    2.246916    ( 0.0000,  0.0000,  0.0000)
  32 H      6.559023    2.498224    1.906892    ( 0.0000,  0.0000,  0.0000)
  33 H      6.433865    2.712109    3.374233    ( 0.0000,  0.0000,  0.0000)
  34 H      3.888045    5.877238    4.481483    ( 0.0000,  0.0000,  0.0000)
  35 H      3.628693    6.292670    5.914696    ( 0.0000,  0.0000,  0.0000)
  36 H      2.480791    9.604860    4.632325    ( 0.0000,  0.0000,  0.0000)
  37 H      1.613930   10.034171    5.808022    ( 0.0000,  0.0000,  0.0000)
  38 H      5.599479    7.845010    2.600631    ( 0.0000,  0.0000,  0.0000)
  39 H      4.841392    7.452622    1.333001    ( 0.0000,  0.0000,  0.0000)
  40 H      7.047781    1.242995    9.036482    ( 0.0000,  0.0000,  0.0000)
  41 H      6.039562    0.435097    9.952488    ( 0.0000,  0.0000,  0.0000)
  42 H      2.712712    7.993932    6.634632    ( 0.0000,  0.0000,  0.0000)
  43 H      1.530571    6.933126    7.099120    ( 0.0000,  0.0000,  0.0000)
  44 H      1.856209   10.040397    0.523091    ( 0.0000,  0.0000,  0.0000)
  45 H      2.337509    8.508805    0.559306    ( 0.0000,  0.0000,  0.0000)
  46 H      2.373162    3.652801    5.690789    ( 0.0000,  0.0000,  0.0000)
  47 H      1.106985    4.572760    5.368643    ( 0.0000,  0.0000,  0.0000)
  48 H      5.673141    3.680395   -1.320940    ( 0.0000,  0.0000,  0.0000)
  49 H      5.462734    2.092674   -0.522718    ( 0.0000,  0.0000,  0.0000)
  50 H      0.106807    6.389606    5.273244    ( 0.0000,  0.0000,  0.0000)
  51 H     -0.455574    5.842244    3.770414    ( 0.0000,  0.0000,  0.0000)
  52 H      0.359446    2.646265   -0.646549    ( 0.0000,  0.0000,  0.0000)
  53 H      1.525516    3.161320   -1.255411    ( 0.0000,  0.0000,  0.0000)
  54 H      4.922349    7.484094    4.553663    ( 0.0000,  0.0000,  0.0000)
  55 H      4.475612    8.860960    3.660270    ( 0.0000,  0.0000,  0.0000)
  56 H     -0.183950    0.691206   -0.507416    ( 0.0000,  0.0000,  0.0000)
  57 H     -0.568587    1.011860   -1.592441    ( 0.0000,  0.0000,  0.0000)
  58 H      5.864626    5.433371    5.999877    ( 0.0000,  0.0000,  0.0000)
  59 H      7.230757    5.408397    6.749952    ( 0.0000,  0.0000,  0.0000)
  60 H      4.364581    2.658761    6.751348    ( 0.0000,  0.0000,  0.0000)
  61 H      3.447746    1.768748    5.837179    ( 0.0000,  0.0000,  0.0000)
  62 H     -1.285003   10.909460    5.599773    ( 0.0000,  0.0000,  0.0000)
  63 H      0.107118   11.473805    5.791680    ( 0.0000,  0.0000,  0.0000)
  64 H     -0.154252    6.307188   -1.013494    ( 0.0000,  0.0000,  0.0000)
  65 H     -0.630105    7.663976   -1.520949    ( 0.0000,  0.0000,  0.0000)
  66 H      3.079265    6.951667   -0.204467    ( 0.0000,  0.0000,  0.0000)
  67 H      2.748456    6.598739    1.341710    ( 0.0000,  0.0000,  0.0000)
  68 H      7.187459    4.713173    2.294222    ( 0.0000,  0.0000,  0.0000)
  69 H      7.083417    6.405852    2.170579    ( 0.0000,  0.0000,  0.0000)
  70 H     -3.628926   11.050011    5.106154    ( 0.0000,  0.0000,  0.0000)
  71 H     -2.959108    9.734116    4.468712    ( 0.0000,  0.0000,  0.0000)
  72 Na     0.510000   -0.019100    0.008427    ( 0.0000,  0.0000,  0.0000)

Unit cell:
           periodic     x           y           z      points  spacing
  1. axis:    yes    8.956370    0.000000    0.000000    44     0.2036
  2. axis:    yes    0.000000    8.956370    0.000000    44     0.2036
  3. axis:    yes    0.000000    0.000000    8.956370    44     0.2036

  Lengths:   8.956370   8.956370   8.956370
  Angles:   90.000000  90.000000  90.000000

Effective grid spacing dv^(1/3) = 0.2036

                     log10-error:    total        iterations:
           time      wfs    density  energy       fermi  poisson
iter:   1  22:39:07          +inf  -318.459515    1      1      
iter:   2  22:39:07         -2.24  -318.432162    1      1      
iter:   3  22:39:08         -2.28  -318.315652    1      1      
iter:   4  22:39:08         -2.55  -318.302446    1      1      
iter:   5  22:39:09         -3.05  -318.301883    0      1      
iter:   6  22:39:10         -3.11  -318.300759    1      1      
iter:   7  22:39:10         -3.59  -318.300682    1      1      
iter:   8  22:39:11         -4.09  -318.300681    0      1      

Converged after 8 iterations.

Dipole moment: (12.187426, -18.323409, 5.025282) |e|*Ang

Energy contributions relative to reference atoms: (reference = -53998.593513)

Kinetic:       +385.531061
Potential:     -396.516333
External:        +0.000000
XC:            -316.582891
Entropy (-ST):   -0.000000
Local:           +9.267482
--------------------------
Free energy:   -318.300681
Extrapolated:  -318.300681

Fermi level: -0.31874

 Band  Eigenvalues  Occupancy
    0    -30.14259    2.00000
    1    -26.49908    2.00000
    2    -25.30099    2.00000
    3    -24.36919    2.00000
    4    -22.82597    2.00000
    5    -22.10030    2.00000
    6    -22.00511    2.00000
    7    -21.97437    2.00000
    8    -21.72551    2.00000
    9    -21.53862    2.00000
   10    -21.46669    2.00000
   11    -21.36066    2.00000
   12    -21.24152    2.00000
   13    -21.14558    2.00000
   14    -21.13784    2.00000
   15    -21.02762    2.00000
   16    -20.99262    2.00000
   17    -20.92085    2.00000
   18    -20.82732    2.00000
   19    -20.64272    2.00000
   20    -20.53483    2.00000
   21    -20.48601    2.00000
   22    -20.26844    2.00000
   23    -20.11832    2.00000
   24    -20.00460    2.00000
   25    -19.94270    2.00000
   26    -19.48075    2.00000
   27    -11.56715    2.00000
   28    -11.33099    2.00000
   29    -10.41262    2.00000
   30    -10.02905    2.00000
   31     -9.72019    2.00000
   32     -9.69076    2.00000
   33     -9.58014    2.00000
   34     -9.49752    2.00000
   35     -9.39886    2.00000
   36     -9.27553    2.00000
   37     -9.27315    2.00000
   38     -9.14572    2.00000
   39     -9.05807    2.00000
   40     -9.03339    2.00000
   41     -8.91636    2.00000
   42     -8.77590    2.00000
   43     -8.64921    2.00000
   44     -8.56526    2.00000
   45     -8.51875    2.00000
   46     -8.39143    2.00000
   47     -8.15949    2.00000
   48     -8.11775    2.00000
   49     -7.98481    2.00000
   50     -7.88215    2.00000
   51     -7.73352    2.00000
   52     -7.64506    2.00000
   53     -7.46174    2.00000
   54     -7.19382    2.00000
   55     -6.99733    2.00000
   56     -6.93580    2.00000
   57     -6.72477    2.00000
   58     -6.64147    2.00000
   59     -6.38187    2.00000
   60     -6.25306    2.00000
   61     -6.15078    2.00000
   62     -5.98203    2.00000
   63     -5.91193    2.00000
   64     -5.78559    2.00000
   65     -5.59407    2.00000
   66     -5.56094    2.00000
   67     -5.43440    2.00000
   68     -5.30488    2.00000
   69     -5.28221    2.00000
   70     -5.12873    2.00000
   71     -4.94761    2.00000
   72     -4.88480    2.00000
   73     -4.60501    2.00000
   74     -4.56725    2.00000
   75     -4.34406    2.00000
   76     -4.28597    2.00000
   77     -4.12404    2.00000
   78     -3.97213    2.00000
   79     -3.88873    2.00000
   80     -3.83924    2.00000
   81     -3.80351    2.00000
   82     -3.79156    2.00000
   83     -3.70023    2.00000
   84     -3.56670    2.00000
   85     -3.53226    2.00000
   86     -3.40249    2.00000
   87     -3.35740    2.00000
   88     -3.16351    2.00000
   89     -3.13592    2.00000
   90     -3.06755    2.00000
   91     -3.01056    2.00000
   92     -2.96145    2.00000
   93     -2.93121    2.00000
   94     -2.83735    2.00000
   95     -2.77886    2.00000
   96     -2.73340    2.00000
   97     -2.57360    2.00000
   98     -2.28778    2.00000
   99      1.64229    0.00000
  100      3.60426    0.00000
  101      3.88032    0.00000
  102      3.97029    0.00000
  103      4.15470    0.00000
  104      4.48435    0.00000
  105      4.86691    0.00000
  106      5.60310    0.00000
  107      5.69494    0.00000
  108      5.86733    0.00000
  109      6.03066    0.00000
  110      6.18486    0.00000
  111      6.24531    0.00000
  112      6.35130    0.00000
  113      6.45224    0.00000
  114      6.56874    0.00000
  115      6.64414    0.00000
  116      6.81575    0.00000
  117      7.07940    0.00000
  118      7.29759    0.00000
  119      7.47593    0.00000
  120      7.93376    0.00000
  121      8.03795    0.00000
  122      8.17087    0.00000

Gap: 3.930 eV
Transition (v -> c):
  (s=0, k=0, n=98, [0.00, 0.00, 0.00]) -> (s=0, k=0, n=99, [0.00, 0.00, 0.00])

Forces in eV/Ang:
  0 O     0.10388    0.56938   -0.33901
  1 O     0.03589    2.05797   -0.73241
  2 O    -0.08723   -0.38648    0.41078
  3 O    -0.62265   -0.16599    0.54076
  4 O    -0.18154    0.07371    1.24062
  5 O    -1.95132    1.09308    0.27427
  6 O     0.05332    0.52609    0.53045
  7 O    -0.07000    0.48401    0.76350
  8 O    -0.82131    0.74077    0.26770
  9 O    -1.68595   -1.27790    1.00082
 10 O    18.70610    3.73458   15.54671
 11 O    -0.74404   -1.15948    1.89345
 12 O    -1.29637   -1.49516    0.90869
 13 O     2.15356   -0.68473    0.14973
 14 O    -0.20715    0.01468   -0.19512
 15 O    -0.92104   -0.77819   -0.65997
 16 O   -35.98314   -7.32333  -18.97379
 17 O     1.80035   -2.00492    1.45708
 18 O    -0.70127   -1.37987    1.48697
 19 O    -0.51573    1.13523   -0.09214
 20 O    -0.23700    0.95480    1.49916
 21 O    -0.11457   -0.39936   -1.03098
 22 O    -1.21277   -0.12565   -1.22495
 23 O    -0.37732   -0.44086   -0.42564
 24 H    -0.46875   -0.09233    0.55663
 25 H     0.17680   -0.39259   -0.16377
 26 H     0.55970   -0.63769    0.89942
 27 H    -0.24026   -0.79608   -0.11492
 28 H    -0.34847    1.04467   -0.03580
 29 H     0.10564   -0.75643   -0.08353
 30 H    -0.07111   -0.06779   -0.58243
 31 H     0.09236    0.33901    0.11349
 32 H     0.31888   -0.49444   -1.32004
 33 H     0.16107    0.64769    0.44122
 34 H     0.29974   -0.61116   -0.41851
 35 H     1.44536   -0.16320   -0.22212
 36 H     0.34155   -0.54492   -0.73035
 37 H    -0.56760   -0.20141    0.12594
 38 H     0.60349    0.13103   -0.23953
 39 H     0.09088   -0.29581   -0.54752
 40 H     0.39059   -0.58516   -0.35496
 41 H    -0.03768   -0.87938    0.23728
 42 H    -0.40556    0.68899   -0.59472
 43 H     1.86980    0.48600   -0.55177
 44 H     1.40431    2.26999   -0.30415
 45 H     1.50454   -0.84697    0.76970
 46 H     1.52615   -0.37936   -0.50836
 47 H    -0.78320    1.18543   -1.17315
 48 H     1.05854    0.05471   -0.30717
 49 H     0.21858    1.92975   -0.36552
 50 H    -0.74330    0.42851    0.10697
 51 H    -0.92826    0.08336   -0.18963
 52 H    -1.04737    0.10742    0.29899
 53 H     0.88831    0.33432   -0.47572
 54 H     0.30337    1.04444    0.02944
 55 H     0.26198   -0.82578    0.67289
 56 H    21.33081   16.88917   10.16039
 57 H    -1.64523    1.03867   -3.54739
 58 H    -1.72817    1.27259   -0.89766
 59 H    -0.08561    0.15954   -0.23232
 60 H    -0.02399    0.74444   -1.15315
 61 H     0.52408    0.78280   -0.58271
 62 H    -0.18263   -1.22286   -0.01754
 63 H     0.71274    0.09980    0.40430
 64 H     0.46610   -0.63530   -0.30363
 65 H    -0.03512   -0.62268   -1.17897
 66 H     0.16196    0.14740    0.36723
 67 H     0.17775   -0.10325    0.11442
 68 H     0.65022    1.24616    0.58423
 69 H     0.21107   -1.04736    0.18582
 70 H     0.42091    0.29808    0.03357
 71 H     0.52407    0.81625    0.62362
 72 Na   -4.84245  -15.71598   -3.93032

System changes: positions 

Initializing position-dependent things.

Density initialized from wave functions
       .---------------------.  
      /|                     |  
     / |     H               |  
    /  |     H             H |  
   /   | H  O              O |  
  / H OH       OHH    H      |  
 *    H|      H O HHO  H     |  
 |     O     H    H  OH      |  
 | H  O| H   O H          H  |  
 |    H|  HHO  H    HH O     |  
 |     O  H       O O  HO    |  
 |     .Ha--H-O-H--H--H------.  
 |    /        H   O       H/   
 |   /H  OH  O     H       /    
 |  /  H     H            /     
 | /            HO       /      
 |/  OH            H    /       
 *---------------------*        

Positions:
   0 O      2.810959    5.576171    3.136997    ( 0.0000,  0.0000,  0.0000)
   1 O      3.090932    9.478780    3.076497    ( 0.0000,  0.0000,  0.0000)
   2 O      0.547145    5.696606    0.344983    ( 0.0000,  0.0000,  0.0000)
   3 O      3.936458    2.778909    1.817663    ( 0.0000,  0.0000,  0.0000)
   4 O      6.462922    3.274901    2.500023    ( 0.0000,  0.0000,  0.0000)
   5 O      4.447596    6.046692    5.305708    ( 0.0000,  0.0000,  0.0000)
   6 O      2.311217    9.367797    5.595359    ( 0.0000,  0.0000,  0.0000)
   7 O      5.791688    7.631033    1.604996    ( 0.0000,  0.0000,  0.0000)
   8 O      6.341199    1.351277    9.700076    ( 0.0000,  0.0000,  0.0000)
   9 O      2.590457    7.118586    7.072517    ( 0.0000,  0.0000,  0.0000)
  10 O      1.655151    9.176010    0.860706    ( 0.0000,  0.0000,  0.0000)
  11 O      1.513524    3.964866    6.011789    ( 0.0000,  0.0000,  0.0000)
  12 O      5.082619    2.961041   -0.972046    ( 0.0000,  0.0000,  0.0000)
  13 O      0.260498    5.877034    4.456253    ( 0.0000,  0.0000,  0.0000)
  14 O      1.308276    2.672965   -0.405322    ( 0.0000,  0.0000,  0.0000)
  15 O      5.275874    8.396927    4.144044    ( 0.0000,  0.0000,  0.0000)
  16 O     -0.799515    0.444061   -0.803246    ( 0.0000,  0.0000,  0.0000)
  17 O      6.550773    4.846360    6.309771    ( 0.0000,  0.0000,  0.0000)
  18 O      3.988904    2.649666    5.718139    ( 0.0000,  0.0000,  0.0000)
  19 O     -0.355798   10.603964    5.976761    ( 0.0000,  0.0000,  0.0000)
  20 O     -0.245134    6.807655   -1.907384    ( 0.0000,  0.0000,  0.0000)
  21 O      3.214539    7.274208    0.766643    ( 0.0000,  0.0000,  0.0000)
  22 O      7.730340    5.643948    2.427458    ( 0.0000,  0.0000,  0.0000)
  23 O     -2.705531   10.714916    4.747600    ( 0.0000,  0.0000,  0.0000)
  24 H      1.933158    5.971120    3.411451    ( 0.0000,  0.0000,  0.0000)
  25 H      2.596463    4.628659    3.086710    ( 0.0000,  0.0000,  0.0000)
  26 H      3.299692   10.381729    2.566810    ( 0.0000,  0.0000,  0.0000)
  27 H      2.390344    9.259431    2.432717    ( 0.0000,  0.0000,  0.0000)
  28 H      0.842838    4.737055    0.379712    ( 0.0000,  0.0000,  0.0000)
  29 H     -0.088259    5.844152    1.139501    ( 0.0000,  0.0000,  0.0000)
  30 H      4.099275    3.196617    0.930815    ( 0.0000,  0.0000,  0.0000)
  31 H      4.832121    2.933662    2.232149    ( 0.0000,  0.0000,  0.0000)
  32 H      6.555366    2.504013    1.906032    ( 0.0000,  0.0000,  0.0000)
  33 H      6.449651    2.690683    3.374492    ( 0.0000,  0.0000,  0.0000)
  34 H      3.891619    5.887011    4.490935    ( 0.0000,  0.0000,  0.0000)
  35 H      3.639408    6.287506    5.914233    ( 0.0000,  0.0000,  0.0000)
  36 H      2.485618    9.599388    4.618441    ( 0.0000,  0.0000,  0.0000)
  37 H      1.624008   10.044703    5.794322    ( 0.0000,  0.0000,  0.0000)
  38 H      5.625138    7.851877    2.605648    ( 0.0000,  0.0000,  0.0000)
  39 H      4.840872    7.462309    1.329566    ( 0.0000,  0.0000,  0.0000)
  40 H      7.015812    1.253876    9.032507    ( 0.0000,  0.0000,  0.0000)
  41 H      6.051335    0.433342    9.957897    ( 0.0000,  0.0000,  0.0000)
  42 H      2.722442    8.000693    6.631395    ( 0.0000,  0.0000,  0.0000)
  43 H      1.539916    6.933874    7.109283    ( 0.0000,  0.0000,  0.0000)
  44 H      1.868411   10.055822    0.512930    ( 0.0000,  0.0000,  0.0000)
  45 H      2.341520    8.506151    0.556621    ( 0.0000,  0.0000,  0.0000)
  46 H      2.366335    3.661168    5.688459    ( 0.0000,  0.0000,  0.0000)
  47 H      1.122592    4.572525    5.366721    ( 0.0000,  0.0000,  0.0000)
  48 H      5.676912    3.682626   -1.302285    ( 0.0000,  0.0000,  0.0000)
  49 H      5.476046    2.097927   -0.512275    ( 0.0000,  0.0000,  0.0000)
  50 H      0.104906    6.393287    5.266280    ( 0.0000,  0.0000,  0.0000)
  51 H     -0.455830    5.853483    3.770762    ( 0.0000,  0.0000,  0.0000)
  52 H      0.354775    2.649171   -0.659939    ( 0.0000,  0.0000,  0.0000)
  53 H      1.537882    3.155093   -1.270347    ( 0.0000,  0.0000,  0.0000)
  54 H      4.934350    7.482612    4.557317    ( 0.0000,  0.0000,  0.0000)
  55 H      4.486662    8.868959    3.673718    ( 0.0000,  0.0000,  0.0000)
  56 H     -0.295273    0.893860   -0.591713    ( 0.0000,  0.0000,  0.0000)
  57 H     -0.569770    1.020650   -1.613812    ( 0.0000,  0.0000,  0.0000)
  58 H      5.862104    5.451345    6.011244    ( 0.0000,  0.0000,  0.0000)
  59 H      7.219854    5.407975    6.757170    ( 0.0000,  0.0000,  0.0000)
  60 H      4.361711    2.649525    6.754518    ( 0.0000,  0.0000,  0.0000)
  61 H      3.448136    1.769243    5.831361    ( 0.0000,  0.0000,  0.0000)
  62 H     -1.285811   10.897001    5.606297    ( 0.0000,  0.0000,  0.0000)
  63 H      0.127170   11.472375    5.790019    ( 0.0000,  0.0000,  0.0000)
  64 H     -0.163918    6.308856   -1.032314    ( 0.0000,  0.0000,  0.0000)
  65 H     -0.649646    7.651665   -1.518801    ( 0.0000,  0.0000,  0.0000)
  66 H      3.083725    6.950889   -0.201560    ( 0.0000,  0.0000,  0.0000)
  67 H      2.752099    6.599061    1.344321    ( 0.0000,  0.0000,  0.0000)
  68 H      7.203718    4.728513    2.280267    ( 0.0000,  0.0000,  0.0000)
  69 H      7.082152    6.402206    2.181440    ( 0.0000,  0.0000,  0.0000)
  70 H     -3.627995   11.056922    5.111063    ( 0.0000,  0.0000,  0.0000)
  71 H     -2.964364    9.747145    4.477480    ( 0.0000,  0.0000,  0.0000)
  72 Na     0.514181   -0.030464    0.011847    ( 0.0000,  0.0000,  0.0000)

Unit cell:
           periodic     x           y           z      points  spacing
  1. axis:    yes    8.956370    0.000000    0.000000    44     0.2036
  2. axis:    yes    0.000000    8.956370    0.000000    44     0.2036
  3. axis:    yes    0.000000    0.000000    8.956370    44     0.2036

  Lengths:   8.956370   8.956370   8.956370
  Angles:   90.000000  90.000000  90.000000

Effective grid spacing dv^(1/3) = 0.2036

                     log10-error:    total        iterations:
           time      wfs    density  energy       fermi  poisson
iter:   1  22:39:13          +inf  -320.118403    2      1      
iter:   2  22:39:14         -2.33  -320.101936    1      1      
iter:   3  22:39:14         -2.36  -320.037914    1      1      
iter:   4  22:39:15         -2.64  -320.026809    1      1      
iter:   5  22:39:16         -3.21  -320.026728    1      1      
iter:   6  22:39:17         -3.30  -320.026258    0      1      
iter:   7  22:39:17         -3.70  -320.026219    0      1      
iter:   8  22:39:18         -4.19  -320.026213    0      1      

Converged after 8 iterations.

Dipole moment: (11.840381, -18.020370, 4.796482) |e|*Ang

Energy contributions relative to reference atoms: (reference = -53998.593513)

Kinetic:       +382.939708
Potential:     -395.429668
External:        +0.000000
XC:            -316.786873
Entropy (-ST):   -0.000000
Local:           +9.250620
--------------------------
Free energy:   -320.026213
Extrapolated:  -320.026213

Fermi level: -0.33093

 Band  Eigenvalues  Occupancy
    0    -28.88090    2.00000
    1    -25.97894    2.00000
    2    -24.39886    2.00000
    3    -24.02755    2.00000
    4    -22.77834    2.00000
    5    -22.18525    2.00000
    6    -22.12467    2.00000
    7    -21.95577    2.00000
    8    -21.75226    2.00000
    9    -21.59275    2.00000
   10    -21.51936    2.00000
   11    -21.38520    2.00000
   12    -21.33202    2.00000
   13    -21.30663    2.00000
   14    -21.13348    2.00000
   15    -21.01185    2.00000
   16    -20.95570    2.00000
   17    -20.91945    2.00000
   18    -20.74041    2.00000
   19    -20.72824    2.00000
   20    -20.60127    2.00000
   21    -20.46393    2.00000
   22    -20.29749    2.00000
   23    -20.16655    2.00000
   24    -20.07303    2.00000
   25    -20.00063    2.00000
   26    -19.54372    2.00000
   27    -11.19922    2.00000
   28    -10.92254    2.00000
   29    -10.53080    2.00000
   30    -10.01148    2.00000
   31     -9.78395    2.00000
   32     -9.68304    2.00000
   33     -9.60390    2.00000
   34     -9.47519    2.00000
   35     -9.42547    2.00000
   36     -9.38931    2.00000
   37     -9.31739    2.00000
   38     -9.22464    2.00000
   39     -9.16259    2.00000
   40     -9.04545    2.00000
   41     -8.96429    2.00000
   42     -8.83425    2.00000
   43     -8.74140    2.00000
   44     -8.60547    2.00000
   45     -8.50759    2.00000
   46     -8.37106    2.00000
   47     -8.16686    2.00000
   48     -8.15248    2.00000
   49     -8.04634    2.00000
   50     -7.93493    2.00000
   51     -7.75894    2.00000
   52     -7.67003    2.00000
   53     -7.35913    2.00000
   54     -7.13190    2.00000
   55     -6.96994    2.00000
   56     -6.93888    2.00000
   57     -6.70003    2.00000
   58     -6.58887    2.00000
   59     -6.33822    2.00000
   60     -6.22674    2.00000
   61     -6.17159    2.00000
   62     -5.99800    2.00000
   63     -5.87689    2.00000
   64     -5.82013    2.00000
   65     -5.59864    2.00000
   66     -5.57651    2.00000
   67     -5.43230    2.00000
   68     -5.38419    2.00000
   69     -5.24444    2.00000
   70     -5.14940    2.00000
   71     -4.97744    2.00000
   72     -4.91778    2.00000
   73     -4.63023    2.00000
   74     -4.60056    2.00000
   75     -4.36904    2.00000
   76     -4.25848    2.00000
   77     -4.15249    2.00000
   78     -4.08502    2.00000
   79     -3.91619    2.00000
   80     -3.84212    2.00000
   81     -3.82812    2.00000
   82     -3.71839    2.00000
   83     -3.66826    2.00000
   84     -3.55739    2.00000
   85     -3.51152    2.00000
   86     -3.50212    2.00000
   87     -3.39189    2.00000
   88     -3.18147    2.00000
   89     -3.14436    2.00000
   90     -3.07127    2.00000
   91     -3.01707    2.00000
   92     -2.99246    2.00000
   93     -2.95413    2.00000
   94     -2.82613    2.00000
   95     -2.81126    2.00000
   96     -2.77367    2.00000
   97     -2.61173    2.00000
   98     -2.30862    2.00000
   99      1.63883    0.00000
  100      3.47386    0.00000
  101      3.90578    0.00000
  102      4.00253    0.00000
  103      4.21709    0.00000
  104      4.51612    0.00000
  105      4.84055    0.00000
  106      5.53900    0.00000
  107      5.72306    0.00000
  108      5.90084    0.00000
  109      6.01897    0.00000
  110      6.17616    0.00000
  111      6.24141    0.00000
  112      6.36074    0.00000
  113      6.44245    0.00000
  114      6.54925    0.00000
  115      6.66018    0.00000
  116      6.83670    0.00000
  117      7.06599    0.00000
  118      7.29550    0.00000
  119      7.47806    0.00000
  120      7.95813    0.00000
  121      8.04859    0.00000
  122      8.19067    0.00000

Gap: 3.947 eV
Transition (v -> c):
  (s=0, k=0, n=98, [0.00, 0.00, 0.00]) -> (s=0, k=0, n=99, [0.00, 0.00, 0.00])

Forces in eV/Ang:
  0 O    -0.05449    1.08752   -0.23497
  1 O     0.67900    2.18677    0.02947
  2 O    -0.01423    0.11058    0.17737
  3 O    -0.87767   -0.02171   -0.07190
  4 O    -0.11688    0.01332    1.60678
  5 O    -1.48233    1.07952    0.44871
  6 O     0.17269    0.62500    0.08539
  7 O     0.16224    0.53935    0.78104
  8 O    -1.61449    0.81814    1.06414
  9 O    -1.44498   -0.98329    0.82081
 10 O    18.16909    4.63270   14.57417
 11 O    -1.13865   -1.03232    1.98348
 12 O    -1.12807   -1.51201    0.95574
 13 O     2.26595   -0.75628    0.15416
 14 O    -0.52778    0.19772   -0.67740
 15 O    -0.65397   -0.79891   -0.51306
 16 O   -32.80418  -18.24400  -16.65468
 17 O     1.15742   -1.65984    1.11770
 18 O    -0.73633   -1.49558    1.52239
 19 O    -0.09009    1.24845    0.05897
 20 O    -0.37544    1.17378    0.77329
 21 O    -0.07923   -0.47396   -0.92320
 22 O    -0.94514   -0.02725   -1.11520
 23 O    -0.28782   -0.09351   -0.26241
 24 H    -0.28062   -0.07033    0.49314
 25 H     0.14854   -0.93564   -0.21609
 26 H     0.61671   -0.52079    0.82735
 27 H    -0.93383   -1.05350   -0.77131
 28 H    -0.23878    0.55025    0.05617
 29 H    -0.01721   -0.82763    0.07287
 30 H    -0.18368   -0.25926   -0.22343
 31 H     0.46102    0.37258    0.39986
 32 H     0.33825   -0.62097   -1.45429
 33 H     0.07496    0.87680    0.21219
 34 H     0.09578   -0.70619   -0.76669
 35 H     1.17265   -0.06834   -0.00944
 36 H     0.30769   -0.65806   -0.37764
 37 H    -0.59240   -0.20346    0.18381
 38 H     0.42539    0.08700   -0.34322
 39 H    -0.00791   -0.28485   -0.44171
 40 H     1.15223   -0.78145   -1.15118
 41 H    -0.06857   -0.87207    0.21617
 42 H    -0.52135    0.35090   -0.41018
 43 H     1.77923    0.52644   -0.56342
 44 H     1.07861    1.27144   -0.00666
 45 H     1.35893   -0.69633    0.80045
 46 H     2.01925   -0.58219   -0.63346
 47 H    -0.90238    1.25408   -1.17086
 48 H     0.95773    0.04393   -0.31897
 49 H     0.05560    1.93938   -0.39362
 50 H    -0.73580    0.49969    0.24718
 51 H    -1.01683    0.03503   -0.29782
 52 H    -0.54512    0.26053    0.41881
 53 H     0.75863    0.15562   -0.08737
 54 H     0.21052    1.06443   -0.01135
 55 H     0.08869   -0.84225    0.56357
 56 H    23.73593   24.40635   12.47947
 57 H    -2.12405    0.27623   -4.71817
 58 H    -1.31459    0.80012   -0.71655
 59 H     0.18803    0.27794   -0.08724
 60 H     0.01660    0.80408   -1.19149
 61 H     0.57065    0.84116   -0.60447
 62 H    -0.34347   -1.01744   -0.14207
 63 H     0.42387   -0.14789    0.42341
 64 H     0.52317   -0.94639    0.29515
 65 H     0.01077   -0.53781   -1.12435
 66 H     0.13886    0.12992    0.30752
 67 H     0.19885   -0.06851    0.08593
 68 H     0.49064    1.00882    0.60653
 69 H     0.08574   -0.86755    0.07995
 70 H     0.40454    0.31001    0.00300
 71 H     0.46942    0.44244    0.49313
 72 Na   -8.96441  -11.58914   -6.91402

System changes: positions 

Initializing position-dependent things.

Density initialized from wave functions
       .---------------------.  
      /|                     |  
     / |     H               |  
    /  |     H            HH |  
   /   | H  O              O |  
  / H OH       OHH    H      |  
 *    H|      H O HHO  H     |  
 |     O     H    H  OH      |  
 | H  O| H   O H          H  |  
 |    H|  HHO   H   HH O     |  
 |     O  H       O O  HO    |  
 |     .Ha--H-O-H--H--H------.  
 |    /        H   O       H/   
 |   /H  OH  O     H       /    
 |  /  H     H            /     
 | /            HO       /      
 |/  OH            H    /       
 *---------------------*        

Positions:
   0 O      2.808905    5.572547    3.134641    ( 0.0000,  0.0000,  0.0000)
   1 O      3.088737    9.477886    3.072955    ( 0.0000,  0.0000,  0.0000)
   2 O      0.544874    5.696389    0.345917    ( 0.0000,  0.0000,  0.0000)
[...]
  13 O      0.257759    5.877701    4.454464    ( 0.0000,  0.0000,  0.0000)
  14 O      1.311288    2.670713   -0.407156    ( 0.0000,  0.0000,  0.0000)
  15 O      5.278077    8.394901    4.144468    ( 0.0000,  0.0000,  0.0000)
  16 O     -0.815324    0.441507   -0.813829    ( 0.0000,  0.0000,  0.0000)
  17 O      6.554108    4.845506    6.308898    ( 0.0000,  0.0000,  0.0000)
  18 O      3.992951    2.651844    5.717900    ( 0.0000,  0.0000,  0.0000)
  19 O     -0.358971   10.604481    5.971676    ( 0.0000,  0.0000,  0.0000)
  20 O     -0.245274    6.806992   -1.900123    ( 0.0000,  0.0000,  0.0000)
  21 O      3.216101    7.274881    0.766371    ( 0.0000,  0.0000,  0.0000)
  22 O      7.729892    5.648224    2.426614    ( 0.0000,  0.0000,  0.0000)
  23 O     -2.708468   10.714020    4.744758    ( 0.0000,  0.0000,  0.0000)
  24 H      1.922318    5.957267    3.416264    ( 0.0000,  0.0000,  0.0000)
  25 H      2.590640    4.634031    3.086651    ( 0.0000,  0.0000,  0.0000)
  26 H      3.294454   10.377451    2.571897    ( 0.0000,  0.0000,  0.0000)
  27 H      2.391397    9.262372    2.450764    ( 0.0000,  0.0000,  0.0000)
  28 H      0.847181    4.755453    0.385554    ( 0.0000,  0.0000,  0.0000)
  29 H     -0.073681    5.865391    1.136854    ( 0.0000,  0.0000,  0.0000)
  30 H      4.101513    3.194931    0.922851    ( 0.0000,  0.0000,  0.0000)
  31 H      4.829899    2.934798    2.218445    ( 0.0000,  0.0000,  0.0000)
  32 H      6.552543    2.508278    1.901711    ( 0.0000,  0.0000,  0.0000)
  33 H      6.465498    2.671507    3.375254    ( 0.0000,  0.0000,  0.0000)
  34 H      3.895394    5.895029    4.498489    ( 0.0000,  0.0000,  0.0000)
  35 H      3.652838    6.282218    5.913751    ( 0.0000,  0.0000,  0.0000)
  36 H      2.491142    9.592388    4.603761    ( 0.0000,  0.0000,  0.0000)
  37 H      1.632599   10.054671    5.781164    ( 0.0000,  0.0000,  0.0000)
  38 H      5.651619    7.858901    2.609809    ( 0.0000,  0.0000,  0.0000)
  39 H      4.840337    7.471245    1.325104    ( 0.0000,  0.0000,  0.0000)
  40 H      6.986830    1.262813    9.025818    ( 0.0000,  0.0000,  0.0000)
  41 H      6.062856    0.429521    9.963782    ( 0.0000,  0.0000,  0.0000)
  42 H      2.730857    8.008240    6.627203    ( 0.0000,  0.0000,  0.0000)
  43 H      1.553433    6.935872    7.118026    ( 0.0000,  0.0000,  0.0000)
  44 H      1.883093   10.074162    0.502829    ( 0.0000,  0.0000,  0.0000)
  45 H      2.348742    8.501857    0.555864    ( 0.0000,  0.0000,  0.0000)
  46 H      2.364373    3.668084    5.684635    ( 0.0000,  0.0000,  0.0000)
  47 H      1.135931    4.575282    5.362021    ( 0.0000,  0.0000,  0.0000)
  48 H      5.682937    3.684944   -1.284530    ( 0.0000,  0.0000,  0.0000)
  49 H      5.489391    2.107764   -0.502849    ( 0.0000,  0.0000,  0.0000)
  50 H      0.101264    6.398132    5.259956    ( 0.0000,  0.0000,  0.0000)
  51 H     -0.458507    5.864721    3.770397    ( 0.0000,  0.0000,  0.0000)
  52 H      0.348839    2.652676   -0.672230    ( 0.0000,  0.0000,  0.0000)
  53 H      1.551965    3.149282   -1.285379    ( 0.0000,  0.0000,  0.0000)
  54 H      4.946764    7.483679    4.560916    ( 0.0000,  0.0000,  0.0000)
  55 H      4.497841    8.874890    3.688409    ( 0.0000,  0.0000,  0.0000)
  56 H     -0.349177    1.153184   -0.645627    ( 0.0000,  0.0000,  0.0000)
  57 H     -0.576007    1.030033   -1.646272    ( 0.0000,  0.0000,  0.0000)
  58 H      5.856467    5.471092    6.020818    ( 0.0000,  0.0000,  0.0000)
  59 H      7.209481    5.408218    6.764125    ( 0.0000,  0.0000,  0.0000)
  60 H      4.358903    2.642275    6.754824    ( 0.0000,  0.0000,  0.0000)
  61 H      3.449884    1.771740    5.824145    ( 0.0000,  0.0000,  0.0000)
  62 H     -1.287432   10.882209    5.612432    ( 0.0000,  0.0000,  0.0000)
  63 H      0.148084   11.470603    5.789381    ( 0.0000,  0.0000,  0.0000)
  64 H     -0.172264    6.308256   -1.050290    ( 0.0000,  0.0000,  0.0000)
  65 H     -0.669015    7.638165   -1.519350    ( 0.0000,  0.0000,  0.0000)
  66 H      3.088484    6.950426   -0.197942    ( 0.0000,  0.0000,  0.0000)
  67 H      2.756189    6.599218    1.347118    ( 0.0000,  0.0000,  0.0000)
  68 H      7.221024    4.746143    2.267862    ( 0.0000,  0.0000,  0.0000)
  69 H      7.081101    6.396518    2.192411    ( 0.0000,  0.0000,  0.0000)
  70 H     -3.626106   11.064521    5.115942    ( 0.0000,  0.0000,  0.0000)
  71 H     -2.968462    9.761131    4.487357    ( 0.0000,  0.0000,  0.0000)
  72 Na     0.517393   -0.042954    0.014519    ( 0.0000,  0.0000,  0.0000)

Unit cell:
           periodic     x           y           z      points  spacing
  1. axis:    yes    8.956370    0.000000    0.000000    44     0.2036
  2. axis:    yes    0.000000    8.956370    0.000000    44     0.2036
  3. axis:    yes    0.000000    0.000000    8.956370    44     0.2036

  Lengths:   8.956370   8.956370   8.956370
  Angles:   90.000000  90.000000  90.000000

Effective grid spacing dv^(1/3) = 0.2036

                     log10-error:    total        iterations:
           time      wfs    density  energy       fermi  poisson
iter:   1  22:39:20          +inf  -324.391738    3      1      
iter:   2  22:39:21         -2.29  -324.358467    1      1      
iter:   3  22:39:22         -2.32  -324.230749    2      1      
iter:   4  22:39:22         -2.58  -324.217747    1      1      
iter:   5  22:39:23         -3.03  -324.218438    1      1      
iter:   6  22:39:24         -3.08  -324.217648    1      1      
iter:   7  22:39:24         -3.56  -324.217682    1      1      
iter:   8  22:39:25         -3.65  -324.217652    1      1      
iter:   9  22:39:26         -4.13  -324.217652    0      1      

Converged after 9 iterations.

Dipole moment: (11.293860, -17.774935, 4.817126) |e|*Ang

Energy contributions relative to reference atoms: (reference = -53998.593513)

Kinetic:       +367.208164
Potential:     -386.331351
External:        +0.000000
XC:            -314.296107
Entropy (-ST):   -0.000000
Local:           +9.201642
--------------------------
Free energy:   -324.217652
Extrapolated:  -324.217652

Fermi level: -0.38283

 Band  Eigenvalues  Occupancy
    0    -27.06570    2.00000
    1    -25.12318    2.00000
    2    -23.80663    2.00000
    3    -23.37896    2.00000
    4    -22.71985    2.00000
    5    -22.29632    2.00000
    6    -22.16883    2.00000
    7    -21.93310    2.00000
    8    -21.79046    2.00000
    9    -21.66712    2.00000
   10    -21.55672    2.00000
   11    -21.45562    2.00000
   12    -21.42420    2.00000
   13    -21.36836    2.00000
   14    -21.16814    2.00000
   15    -21.00794    2.00000
   16    -20.97349    2.00000
   17    -20.94815    2.00000
   18    -20.79474    2.00000
   19    -20.72309    2.00000
   20    -20.49472    2.00000
   21    -20.37694    2.00000
   22    -20.31904    2.00000
   23    -20.17900    2.00000
   24    -20.11498    2.00000
   25    -20.06690    2.00000
   26    -19.62242    2.00000
   27    -10.89156    2.00000
   28    -10.73453    2.00000
   29    -10.35086    2.00000
   30     -9.81744    2.00000
   31     -9.75209    2.00000
   32     -9.66379    2.00000
   33     -9.61740    2.00000
   34     -9.53567    2.00000
   35     -9.46594    2.00000
   36     -9.35805    2.00000
   37     -9.32892    2.00000
   38     -9.28884    2.00000
   39     -9.15803    2.00000
   40     -8.99318    2.00000
   41     -8.93098    2.00000
   42     -8.91577    2.00000
   43     -8.73185    2.00000
   44     -8.64167    2.00000
   45     -8.50225    2.00000
   46     -8.34515    2.00000
   47     -8.19567    2.00000
   48     -8.18152    2.00000
   49     -8.05562    2.00000
   50     -7.98975    2.00000
   51     -7.79511    2.00000
   52     -7.71701    2.00000
   53     -7.25315    2.00000
   54     -7.08825    2.00000
   55     -6.91971    2.00000
   56     -6.88040    2.00000
   57     -6.63822    2.00000
   58     -6.45160    2.00000
   59     -6.29811    2.00000
   60     -6.18506    2.00000
   61     -6.16963    2.00000
   62     -5.99741    2.00000
   63     -5.84719    2.00000
   64     -5.78320    2.00000
   65     -5.62897    2.00000
   66     -5.57688    2.00000
   67     -5.42777    2.00000
   68     -5.36338    2.00000
   69     -5.18826    2.00000
   70     -5.14504    2.00000
   71     -4.99203    2.00000
   72     -4.91111    2.00000
   73     -4.64808    2.00000
   74     -4.62067    2.00000
   75     -4.39136    2.00000
   76     -4.26037    2.00000
   77     -4.20459    2.00000
   78     -4.13452    2.00000
   79     -3.94255    2.00000
   80     -3.86308    2.00000
   81     -3.83032    2.00000
   82     -3.72028    2.00000
   83     -3.66097    2.00000
   84     -3.60310    2.00000
   85     -3.56535    2.00000
   86     -3.44014    2.00000
   87     -3.33400    2.00000
   88     -3.22321    2.00000
   89     -3.15159    2.00000
   90     -3.10132    2.00000
   91     -3.06868    2.00000
   92     -3.01115    2.00000
   93     -2.90607    2.00000
   94     -2.84634    2.00000
   95     -2.82317    2.00000
   96     -2.76935    2.00000
   97     -2.65634    2.00000
   98     -2.32081    2.00000
   99      1.54907    0.00000
  100      3.24500    0.00000
  101      3.88378    0.00000
  102      4.03182    0.00000
  103      4.26805    0.00000
  104      4.54147    0.00000
  105      4.81178    0.00000
  106      5.37885    0.00000
  107      5.73415    0.00000
  108      5.90922    0.00000
  109      6.00515    0.00000
  110      6.12565    0.00000
  111      6.21526    0.00000
  112      6.37477    0.00000
  113      6.42014    0.00000
  114      6.51813    0.00000
  115      6.70397    0.00000
  116      6.86051    0.00000
  117      7.05263    0.00000
  118      7.28007    0.00000
  119      7.46756    0.00000
  120      7.96520    0.00000
  121      8.02445    0.00000
  122      8.23204    0.00000

Gap: 3.870 eV
Transition (v -> c):
  (s=0, k=0, n=98, [0.00, 0.00, 0.00]) -> (s=0, k=0, n=99, [0.00, 0.00, 0.00])

Forces in eV/Ang:
  0 O    -0.24942    1.52880   -0.13324
  1 O     1.30476    2.23842    0.78813
  2 O    -0.01029    0.69955   -0.08470
  3 O    -1.11461    0.11419   -0.63563
  4 O    -0.02762   -0.11427    1.87079
  5 O    -0.93617    1.02333    0.54076
  6 O     0.25555    0.73337   -0.31646
  7 O     0.38479    0.57432    0.77819
  8 O    -2.33082    0.80481    1.85884
  9 O    -1.09595   -0.63846    0.60472
 10 O    17.24740    5.37209   13.24899
 11 O    -1.40441   -0.85320    1.85059
 12 O    -0.91394   -1.37166    0.92922
 13 O     2.28275   -0.78950    0.15068
 14 O    -0.79715    0.41686   -1.13192
 15 O    -0.32158   -0.81613   -0.35135
 16 O   -11.17925   -2.16008   -7.07922
 17 O     0.42293   -1.20195    0.75492
 18 O    -0.73620   -1.53131    1.50769
 19 O     0.31104    1.35011    0.16352
 20 O    -0.45614    1.38659   -0.03099
 21 O    -0.03371   -0.53591   -0.78877
 22 O    -0.56859    0.14599   -0.95310
 23 O    -0.16048    0.34210   -0.07233
 24 H    -0.07103   -0.03946    0.42322
 25 H     0.13826   -1.39294   -0.26968
 26 H     0.66192   -0.37283    0.72393
 27 H    -1.58584   -1.26566   -1.37636
 28 H    -0.07479   -0.04307    0.15073
 29 H    -0.14662   -0.87102    0.23383
 30 H    -0.28809   -0.43019    0.12545
 31 H     0.80574    0.40732    0.64118
 32 H     0.33673   -0.65329   -1.49282
 33 H    -0.03092    1.07375   -0.00469
 34 H    -0.09432   -0.77343   -1.07810
 35 H     0.81128    0.05208    0.26038
 36 H     0.27072   -0.73797   -0.05602
 37 H    -0.58252   -0.23563    0.21970
 38 H     0.21473    0.04777   -0.45238
 39 H    -0.07795   -0.27273   -0.32259
 40 H     1.80970   -0.96508   -1.83903
 41 H    -0.07174   -0.77079    0.16696
 42 H    -0.62755    0.00261   -0.21748
 43 H     1.56559    0.52689   -0.55899
 44 H     0.74183    0.29291    0.31689
 45 H     1.18222   -0.51129    0.84856
 46 H     2.27593   -0.70157   -0.67426
 47 H    -0.92646    1.18294   -1.01325
 48 H     0.78333   -0.02725   -0.31434
 49 H    -0.08442    1.84390   -0.37631
 50 H    -0.70759    0.53686    0.33629
 51 H    -1.02352   -0.02250   -0.34958
 52 H     0.00386    0.43280    0.53015
 53 H     0.60888   -0.01111    0.27693
 54 H     0.10071    1.03479   -0.03766
 55 H    -0.12348   -0.82655    0.41791
 56 H     4.07741    7.49831    4.70219
 57 H    -1.83098   -0.87759   -4.97370
 58 H    -0.77958    0.21951   -0.50355
 59 H     0.43259    0.38384    0.04771
 60 H     0.06376    0.84407   -1.18385
 61 H     0.57410    0.83056   -0.60950
 62 H    -0.48440   -0.79417   -0.29347
 63 H     0.10746   -0.37548    0.43229
 64 H     0.58778   -1.30639    0.96223
 65 H    -0.00459   -0.36296   -1.03622
 66 H     0.11355    0.09889    0.21232
 67 H     0.22021   -0.03479    0.06178
 68 H     0.25629    0.65251    0.58787
 69 H    -0.08208   -0.62741   -0.03761
 70 H     0.39137    0.31788   -0.02503
 71 H     0.37954   -0.00516    0.34439
 72 Na   -9.77043   -9.77491   -7.51471

System changes: positions 

Initializing position-dependent things.

Density initialized from wave functions
       .---------------------.  
      /|                     |  
     / |     H               |  
    /  |     H            HH |  
   /   |  H O              O |  
  / H OH       OHH    H      |  
 *    H|      H O HHO  H     |  
 |     O     H    H  OH      |  
 | H  O| H   O H          H  |  
 |    H|  HHO   H   HH O     |  
 |     O  H       O O  HO    |  
 |     .Ha--H-O-H--H--H------.  
 |    /        H   O       H/   
 |   /H  OH  O     H       /    
 |  /  H     H            /     
 | /            HO       /      
 |/  OH            H    /       
 *---------------------*        

Positions:
   0 O      2.806836    5.569193    3.132290    ( 0.0000,  0.0000,  0.0000)
   1 O      3.086763    9.477338    3.069572    ( 0.0000,  0.0000,  0.0000)
   2 O      0.542628    5.696280    0.346828    ( 0.0000,  0.0000,  0.0000)
   3 O      3.935829    2.779575    1.824626    ( 0.0000,  0.0000,  0.0000)
   4 O      6.454887    3.272350    2.499707    ( 0.0000,  0.0000,  0.0000)
   5 O      4.442139    6.045543    5.309724    ( 0.0000,  0.0000,  0.0000)
   6 O      2.311757    9.364397    5.593371    ( 0.0000,  0.0000,  0.0000)
   7 O      5.787475    7.633976    1.605348    ( 0.0000,  0.0000,  0.0000)
   8 O      6.341746    1.353774    9.699661    ( 0.0000,  0.0000,  0.0000)
   9 O      2.593617    7.122791    7.081676    ( 0.0000,  0.0000,  0.0000)
  10 O      1.684585    9.183669    0.888099    ( 0.0000,  0.0000,  0.0000)
  11 O      1.518099    3.960291    6.016604    ( 0.0000,  0.0000,  0.0000)
  12 O      5.078598    2.953398   -0.972467    ( 0.0000,  0.0000,  0.0000)
  13 O      0.255393    5.878242    4.452716    ( 0.0000,  0.0000,  0.0000)
  14 O      1.314148    2.668548   -0.409140    ( 0.0000,  0.0000,  0.0000)
  15 O      5.280208    8.392776    4.144834    ( 0.0000,  0.0000,  0.0000)
  16 O     -0.832635    0.438657   -0.825356    ( 0.0000,  0.0000,  0.0000)
  17 O      6.557468    4.844480    6.308149    ( 0.0000,  0.0000,  0.0000)
  18 O      3.996843    2.653768    5.717889    ( 0.0000,  0.0000,  0.0000)
  19 O     -0.362062   10.605195    5.966672    ( 0.0000,  0.0000,  0.0000)
  20 O     -0.245480    6.806544   -1.892947    ( 0.0000,  0.0000,  0.0000)
  21 O      3.217640    7.275466    0.765984    ( 0.0000,  0.0000,  0.0000)
  22 O      7.729363    5.652474    2.425637    ( 0.0000,  0.0000,  0.0000)
  23 O     -2.711396   10.713184    4.741937    ( 0.0000,  0.0000,  0.0000)
  24 H      1.911429    5.943474    3.422032    ( 0.0000,  0.0000,  0.0000)
  25 H      2.585210    4.636028    3.085951    ( 0.0000,  0.0000,  0.0000)
  26 H      3.290849   10.372334    2.578649    ( 0.0000,  0.0000,  0.0000)
  27 H      2.388664    9.262269    2.465335    ( 0.0000,  0.0000,  0.0000)
  28 H      0.851297    4.773545    0.391690    ( 0.0000,  0.0000,  0.0000)
  29 H     -0.059614    5.884321    1.134792    ( 0.0000,  0.0000,  0.0000)
  30 H      4.103041    3.192239    0.915274    ( 0.0000,  0.0000,  0.0000)
  31 H      4.829619    2.936892    2.206420    ( 0.0000,  0.0000,  0.0000)
  32 H      6.550553    2.510941    1.893886    ( 0.0000,  0.0000,  0.0000)
  33 H      6.481095    2.655100    3.375997    ( 0.0000,  0.0000,  0.0000)
  34 H      3.898903    5.901116    4.503394    ( 0.0000,  0.0000,  0.0000)
  35 H      3.668049    6.277112    5.913894    ( 0.0000,  0.0000,  0.0000)
  36 H      2.497250    9.583709    4.589110    ( 0.0000,  0.0000,  0.0000)
  37 H      1.639707   10.063967    5.768674    ( 0.0000,  0.0000,  0.0000)
  38 H      5.678316    7.865959    2.612848    ( 0.0000,  0.0000,  0.0000)
  39 H      4.839623    7.479432    1.319923    ( 0.0000,  0.0000,  0.0000)
  40 H      6.962476    1.269354    9.014828    ( 0.0000,  0.0000,  0.0000)
  41 H      6.074079    0.423908    9.969998    ( 0.0000,  0.0000,  0.0000)
  42 H      2.737685    8.015709    6.622541    ( 0.0000,  0.0000,  0.0000)
  43 H      1.570525    6.939101    7.125343    ( 0.0000,  0.0000,  0.0000)
  44 H      1.899377   10.092995    0.493595    ( 0.0000,  0.0000,  0.0000)
  45 H      2.358696    8.496394    0.557135    ( 0.0000,  0.0000,  0.0000)
  46 H      2.367849    3.673254    5.679250    ( 0.0000,  0.0000,  0.0000)
  47 H      1.146917    4.580824    5.354962    ( 0.0000,  0.0000,  0.0000)
  48 H      5.690760    3.687172   -1.267721    ( 0.0000,  0.0000,  0.0000)
  49 H      5.502387    2.121879   -0.494423    ( 0.0000,  0.0000,  0.0000)
  50 H      0.095979    6.404201    5.254504    ( 0.0000,  0.0000,  0.0000)
  51 H     -0.463591    5.875781    3.769204    ( 0.0000,  0.0000,  0.0000)
  52 H      0.342978    2.657172   -0.683123    ( 0.0000,  0.0000,  0.0000)
  53 H      1.567339    3.143510   -1.299584    ( 0.0000,  0.0000,  0.0000)
  54 H      4.959279    7.487197    4.564386    ( 0.0000,  0.0000,  0.0000)
  55 H      4.508602    8.878789    3.703932    ( 0.0000,  0.0000,  0.0000)
  56 H     -0.392778    1.427468   -0.687753    ( 0.0000,  0.0000,  0.0000)
  57 H     -0.586533    1.037223   -1.690207    ( 0.0000,  0.0000,  0.0000)
  58 H      5.849037    5.491142    6.029088    ( 0.0000,  0.0000,  0.0000)
  59 H      7.200252    5.409372    6.771117    ( 0.0000,  0.0000,  0.0000)
  60 H      4.356277    2.637114    6.752309    ( 0.0000,  0.0000,  0.0000)
  61 H      3.452978    1.776185    5.815559    ( 0.0000,  0.0000,  0.0000)
  62 H     -1.290187   10.865691    5.617801    ( 0.0000,  0.0000,  0.0000)
  63 H      0.169020   11.467957    5.789779    ( 0.0000,  0.0000,  0.0000)
  64 H     -0.179118    6.304554   -1.065776    ( 0.0000,  0.0000,  0.0000)
  65 H     -0.688179    7.623950   -1.522359    ( 0.0000,  0.0000,  0.0000)
  66 H      3.093459    6.950204   -0.193858    ( 0.0000,  0.0000,  0.0000)
  67 H      2.760758    6.599289    1.350030    ( 0.0000,  0.0000,  0.0000)
  68 H      7.238748    4.765130    2.256994    ( 0.0000,  0.0000,  0.0000)
  69 H      7.079866    6.389401    2.203170    ( 0.0000,  0.0000,  0.0000)
  70 H     -3.623308   11.072791    5.120707    ( 0.0000,  0.0000,  0.0000)
  71 H     -2.971611    9.774950    4.497944    ( 0.0000,  0.0000,  0.0000)
  72 Na     0.519550   -0.056325    0.016377    ( 0.0000,  0.0000,  0.0000)

Unit cell:
           periodic     x           y           z      points  spacing
  1. axis:    yes    8.956370    0.000000    0.000000    44     0.2036
  2. axis:    yes    0.000000    8.956370    0.000000    44     0.2036
  3. axis:    yes    0.000000    0.000000    8.956370    44     0.2036

  Lengths:   8.956370   8.956370   8.956370
  Angles:   90.000000  90.000000  90.000000

Effective grid spacing dv^(1/3) = 0.2036

                     log10-error:    total        iterations:
           time      wfs    density  energy       fermi  poisson
iter:   1  22:39:28          +inf  -325.779493    8      1      
iter:   2  22:39:29         -2.23  -325.718759    2      1      
iter:   3  22:39:29         -2.28  -325.492213    4      1      
