
  ___ ___ ___ _ _ _  
 |   |   |_  | | | | 
 | | | | | . | | | | 
 |__ |  _|___|_____|  19.8.1
 |___|_|             

User:   ericlin@hebbe08-4
Date:   Thu Feb  6 08:19:33 2020
Arch:   x86_64
Pid:    14403
Python: 3.7.2
gpaw:   /apps/Hebbe7/software/MPI/intel/2019.1.144-GCC-8.2.0-2.31.1/impi/2018.4.274/GPAW/19.8.1-Python-3.7.2/lib/python3.7/site-packages/gpaw
_gpaw:  /apps/Hebbe7/software/MPI/intel/2019.1.144-GCC-8.2.0-2.31.1/impi/2018.4.274/GPAW/19.8.1-Python-3.7.2/bin/
        gpaw-python
ase:    /apps/Hebbe7/software/MPI/intel/2019.1.144-GCC-8.2.0-2.31.1/impi/2018.4.274/ASE/3.18.0-Python-3.7.2/lib/python3.7/site-packages/ase (version 3.18.0)
numpy:  /apps/Hebbe7/software/MPI/intel/2019.1.144-GCC-8.2.0-2.31.1/impi/2018.4.274/SciPy-bundle/2019.03/lib/python3.7/site-packages/numpy (version 1.16.2)
scipy:  /apps/Hebbe7/software/MPI/intel/2019.1.144-GCC-8.2.0-2.31.1/impi/2018.4.274/SciPy-bundle/2019.03/lib/python3.7/site-packages/scipy (version 1.2.1)
libxc:  4.3.4
units:  Angstrom and eV
cores:  6

Input parameters:
  basis: dzp
  charge: 1
  mode: lcao
  symmetry: {point_group: False}
  xc: PBE

System changes: positions, numbers, cell, pbc, initial_charges, initial_magmoms 

Initialize ...

O-setup:
  name: Oxygen
  id: 32ecd46bf208036f09c70b0ec9a88b78
  Z: 8
  valence: 6
  core: 2
  charge: 0.0
  file: /apps/Common/Core/GPAW-setups/0.9.20000/O.PBE.gz
  compensation charges: gauss, rc=0.21, lmax=2
  cutoffs: 1.17(filt), 0.83(core),
  valence states:
                energy  radius
    2s(2.00)   -23.961   0.688
    2p(4.00)    -9.029   0.598
    *s           3.251   0.688
    *p          18.182   0.598
    *d           0.000   0.619

  LCAO basis set for O:
    Name: dzp
    File: /apps/Common/Core/GPAW-setups/0.9.20000/O.dzp.basis.gz
    Number of radial functions: 5
    Number of spherical harmonics: 13
      l=0, rc=4.3438 Bohr: 2s-sz confined orbital
      l=1, rc=5.3906 Bohr: 2p-sz confined orbital
      l=0, rc=2.2969 Bohr: 2s-dz split-valence wave
      l=1, rc=2.8906 Bohr: 2p-dz split-valence wave
      l=2, rc=5.3906 Bohr: d-type Gaussian polarization

H-setup:
  name: Hydrogen
  id: d65de229564ff8ea4db303e23b6d1ecf
  Z: 1
  valence: 1
  core: 0
  charge: 0.0
  file: /apps/Common/Core/GPAW-setups/0.9.20000/H.PBE.gz
  compensation charges: gauss, rc=0.15, lmax=2
  cutoffs: 0.85(filt), 0.53(core),
  valence states:
                energy  radius
    1s(1.00)    -6.494   0.476
    *s          20.717   0.476
    *p           0.000   0.476

  LCAO basis set for H:
    Name: dzp
    File: /apps/Common/Core/GPAW-setups/0.9.20000/H.dzp.basis.gz
    Number of radial functions: 3
    Number of spherical harmonics: 5
      l=0, rc=6.4219 Bohr: 1s-sz confined orbital
      l=0, rc=3.6094 Bohr: 1s-dz split-valence wave
      l=1, rc=6.4219 Bohr: p-type Gaussian polarization

Na-setup:
  name: Sodium
  id: d7ecbc49209718622bcbe287195dca2a
  Z: 11
  valence: 7
  core: 4
  charge: 0.0
  file: /apps/Common/Core/GPAW-setups/0.9.20000/Na.PBE.gz
  compensation charges: gauss, rc=0.37, lmax=2
  cutoffs: 2.17(filt), 2.59(core),
  valence states:
                energy  radius
    3s(1.00)    -2.744   1.201
    2p(6.00)   -28.672   1.217
    3p(0.00)    -0.743   1.217
    *s          24.468   1.201
    *d           0.000   1.238

  LCAO basis set for Na:
    Name: dzp
    File: /apps/Common/Core/GPAW-setups/0.9.20000/Na.dzp.basis.gz
    Number of radial functions: 7
    Number of spherical harmonics: 17
      l=0, rc=11.4062 Bohr: 3s-sz confined orbital
      l=1, rc=3.6719 Bohr: 2p-sz confined orbital
      l=1, rc=15.9375 Bohr: 3p-sz confined orbital
      l=0, rc=6.9531 Bohr: 3s-dz split-valence wave
      l=1, rc=2.4219 Bohr: 2p-dz split-valence wave
      l=1, rc=10.0469 Bohr: 3p-dz split-valence wave
      l=1, rc=11.4062 Bohr: p-type Gaussian polarization

Reference energy: -53998.593513

Spin-paired calculation

Occupation numbers:
  Fermi-Dirac: width=0.1000 eV

Convergence criteria:
  Maximum total energy change: 0.0005 eV / electron
  Maximum integral of absolute density change: 0.0001 electrons
  Maximum integral of absolute eigenstate change: 4e-08 eV^2
  Maximum number of iterations: 333

Symmetries present (total): 1

  ( 1  0  0)
  ( 0  1  0)
  ( 0  0  1)

1 k-point (Gamma)
1 k-point in the irreducible part of the Brillouin zone
       k-points in crystal coordinates                weights
   0:     0.00000000    0.00000000    0.00000000          1/1

Wave functions: LCAO
  Diagonalizer: Serial LAPACK
  Atomic Correction: dense with blas
  Datatype: float
 

Eigensolver
   LCAO using direct dense diagonalizer 

Densities:
  Coarse grid: 44*44*44 grid
  Fine grid: 88*88*88 grid
  Total Charge: 1.000000 

Density mixing:
  Method: separate
  Backend: pulay
  Linear mixing parameter: 0.05
  Mixing with 5 old densities
  Damping of long wave oscillations: 50 

Hamiltonian:
  XC and Coulomb potentials evaluated on a 88*88*88 grid
  Using the PBE Exchange-Correlation functional
  Interpolation: tri-quintic (5. degree polynomial)
  Poisson solver: FastPoissonSolver using
    6*3+1=19 point O(h^6) finite-difference Laplacian stencil;
    FFT axes: [0, 1, 2];
    FST axes: [].
 

XC parameters: PBE with 2 nearest neighbor stencil

Memory estimate:
  Process memory now: 111.07 MiB
  Calculator: 27.42 MiB
    Density: 9.43 MiB
      Arrays: 2.88 MiB
      Localized functions: 5.44 MiB
      Mixer: 1.11 MiB
    Hamiltonian: 2.28 MiB
      Arrays: 1.88 MiB
      XC: 0.00 MiB
      Poisson: 0.00 MiB
      vbar: 0.39 MiB
    Wavefunctions: 15.71 MiB
      C [qnM]: 0.53 MiB
      S, T [2 x qmm]: 4.94 MiB
      P [aqMi]: 0.05 MiB
      BasisFunctions: 10.18 MiB
      Eigensolver: 0.00 MiB

Total number of cores used: 6
Domain decomposition: 3 x 2 x 1

Number of atoms: 73
Number of atomic orbitals: 569
Number of bands in calculation: 123
Bands to converge: occupied states only
Number of valence electrons: 198

... initialized

Initializing position-dependent things.

Density initialized from atomic densities
       .---------------------.  
      /|                     |  
     / |     H               |  
    /  |                   H |  
   /   | H  OH             O |  
  / H OH       OHH    H      |  
 *H   H|      H O HHO        |  
 |     O      H   H  OH      |  
 | H  O| H   OH           H  |  
 |    H|  HHO  H    HH O     |  
 |     O   H      O O  HO    |  
 |     .H---H-O-H--H--H------.  
 |    /        H   O      H /   
 |   /H  OH  O     H       /    
 |  /  H     H            /     
 | /             O       /      
 |/  OH         H  H    /       
 *Na-------------------*        

Positions:
   0 O      2.819396    5.591711    3.146020    ( 0.0000,  0.0000,  0.0000)
   1 O      3.099917    9.485477    3.089785    ( 0.0000,  0.0000,  0.0000)
   2 O      0.556171    5.696983    0.341817    ( 0.0000,  0.0000,  0.0000)
   3 O      3.936436    2.777345    1.804092    ( 0.0000,  0.0000,  0.0000)
   4 O      6.479010    3.280136    2.503079    ( 0.0000,  0.0000,  0.0000)
   5 O      4.455530    6.050972    5.298088    ( 0.0000,  0.0000,  0.0000)
   6 O      2.310272    9.375748    5.600094    ( 0.0000,  0.0000,  0.0000)
   7 O      5.800264    7.625937    1.605669    ( 0.0000,  0.0000,  0.0000)
   8 O      6.338016    1.347520    9.702072    ( 0.0000,  0.0000,  0.0000)
   9 O      2.581227    7.107987    7.055536    ( 0.0000,  0.0000,  0.0000)
  10 O      1.628563    9.167816    0.832191    ( 0.0000,  0.0000,  0.0000)
  11 O      1.502673    3.972226    6.005292    ( 0.0000,  0.0000,  0.0000)
  12 O      5.088587    2.974060   -0.969587    ( 0.0000,  0.0000,  0.0000)
  13 O      0.274792    5.873312    4.463709    ( 0.0000,  0.0000,  0.0000)
  14 O      1.295751    2.682126   -0.398219    ( 0.0000,  0.0000,  0.0000)
  15 O      5.265598    8.403950    4.141343    ( 0.0000,  0.0000,  0.0000)
  16 O     -0.778106    0.441675   -0.782765    ( 0.0000,  0.0000,  0.0000)
  17 O      6.539808    4.846939    6.315423    ( 0.0000,  0.0000,  0.0000)
  18 O      3.971487    2.638825    5.721310    ( 0.0000,  0.0000,  0.0000)
  19 O     -0.343688   10.603621    5.997180    ( 0.0000,  0.0000,  0.0000)
  20 O     -0.244886    6.811734   -1.934602    ( 0.0000,  0.0000,  0.0000)
  21 O      3.208031    7.270903    0.766212    ( 0.0000,  0.0000,  0.0000)
  22 O      7.730394    5.626485    2.429047    ( 0.0000,  0.0000,  0.0000)
  23 O     -2.694197   10.717943    4.758473    ( 0.0000,  0.0000,  0.0000)
  24 H      1.966372    6.024747    3.405222    ( 0.0000,  0.0000,  0.0000)
  25 H      2.624229    4.597310    3.083039    ( 0.0000,  0.0000,  0.0000)
  26 H      3.334396   10.384345    2.567373    ( 0.0000,  0.0000,  0.0000)
  27 H      2.379554    9.228452    2.356907    ( 0.0000,  0.0000,  0.0000)
  28 H      0.817734    4.685958    0.355311    ( 0.0000,  0.0000,  0.0000)
  29 H     -0.144963    5.740228    1.148496    ( 0.0000,  0.0000,  0.0000)
  30 H      4.088526    3.201615    0.949509    ( 0.0000,  0.0000,  0.0000)
  31 H      4.843799    2.937269    2.290479    ( 0.0000,  0.0000,  0.0000)
  32 H      6.574140    2.475488    1.892463    ( 0.0000,  0.0000,  0.0000)
  33 H      6.389243    2.783887    3.381727    ( 0.0000,  0.0000,  0.0000)
  34 H      3.883341    5.839987    4.450245    ( 0.0000,  0.0000,  0.0000)
  35 H      3.618827    6.305185    5.911467    ( 0.0000,  0.0000,  0.0000)
  36 H      2.471214    9.614647    4.660812    ( 0.0000,  0.0000,  0.0000)
  37 H      1.575885    9.999238    5.850364    ( 0.0000,  0.0000,  0.0000)
  38 H      5.532248    7.826546    2.582969    ( 0.0000,  0.0000,  0.0000)
  39 H      4.845581    7.419149    1.334738    ( 0.0000,  0.0000,  0.0000)
  40 H      7.143854    1.202327    9.048474    ( 0.0000,  0.0000,  0.0000)
  41 H      6.004198    0.428965    9.939264    ( 0.0000,  0.0000,  0.0000)
  42 H      2.678557    7.985743    6.634532    ( 0.0000,  0.0000,  0.0000)
  43 H      1.528824    6.937033    7.060695    ( 0.0000,  0.0000,  0.0000)
  44 H      1.842081   10.033868    0.547738    ( 0.0000,  0.0000,  0.0000)
  45 H      2.348385    8.503293    0.578365    ( 0.0000,  0.0000,  0.0000)
  46 H      2.409669    3.624558    5.692078    ( 0.0000,  0.0000,  0.0000)
  47 H      1.050754    4.588423    5.359046    ( 0.0000,  0.0000,  0.0000)
  48 H      5.677060    3.673700   -1.381131    ( 0.0000,  0.0000,  0.0000)
  49 H      5.427648    2.103071   -0.558916    ( 0.0000,  0.0000,  0.0000)
  50 H      0.101987    6.383731    5.294245    ( 0.0000,  0.0000,  0.0000)
  51 H     -0.466506    5.809962    3.768242    ( 0.0000,  0.0000,  0.0000)
  52 H      0.355029    2.637903   -0.602675    ( 0.0000,  0.0000,  0.0000)
  53 H      1.501826    3.186353   -1.220363    ( 0.0000,  0.0000,  0.0000)
  54 H      4.891182    7.502940    4.543566    ( 0.0000,  0.0000,  0.0000)
  55 H      4.447301    8.825490    3.630088    ( 0.0000,  0.0000,  0.0000)
  56 H      0.161297    0.362959   -0.292342    ( 0.0000,  0.0000,  0.0000)
  57 H     -0.583601    1.001960   -1.573087    ( 0.0000,  0.0000,  0.0000)
  58 H      5.846414    5.399174    5.952066    ( 0.0000,  0.0000,  0.0000)
  59 H      7.260046    5.411124    6.723603    ( 0.0000,  0.0000,  0.0000)
  60 H      4.372608    2.696673    6.726093    ( 0.0000,  0.0000,  0.0000)
  61 H      3.453167    1.777143    5.846797    ( 0.0000,  0.0000,  0.0000)
  62 H     -1.283815   10.927743    5.580953    ( 0.0000,  0.0000,  0.0000)
  63 H      0.059086   11.481749    5.802292    ( 0.0000,  0.0000,  0.0000)
  64 H     -0.119126    6.295339   -0.965805    ( 0.0000,  0.0000,  0.0000)
  65 H     -0.572851    7.692809   -1.544432    ( 0.0000,  0.0000,  0.0000)
  66 H      3.068325    6.956068   -0.207916    ( 0.0000,  0.0000,  0.0000)
  67 H      2.739850    6.595922    1.335783    ( 0.0000,  0.0000,  0.0000)
  68 H      7.148827    4.685738    2.344262    ( 0.0000,  0.0000,  0.0000)
  69 H      7.090848    6.400919    2.141208    ( 0.0000,  0.0000,  0.0000)
  70 H     -3.625543   11.033312    5.092160    ( 0.0000,  0.0000,  0.0000)
  71 H     -2.935576    9.709105    4.452144    ( 0.0000,  0.0000,  0.0000)
  72 Na     0.500000    0.000000    0.000000    ( 0.0000,  0.0000,  0.0000)

Unit cell:
           periodic     x           y           z      points  spacing
  1. axis:    yes    8.956370    0.000000    0.000000    44     0.2036
  2. axis:    yes    0.000000    8.956370    0.000000    44     0.2036
  3. axis:    yes    0.000000    0.000000    8.956370    44     0.2036

  Lengths:   8.956370   8.956370   8.956370
  Angles:   90.000000  90.000000  90.000000

Effective grid spacing dv^(1/3) = 0.2036

                     log10-error:    total        iterations:
           time      wfs    density  energy       fermi  poisson
iter:   1  08:19:36          +inf  -321.670094    0      1      
iter:   2  08:19:37         -0.86  -316.906818    0      1      
iter:   3  08:19:39         -0.90  -303.320150    12     1      
iter:   4  08:19:40         -1.25  -303.534172    2      1      
iter:   5  08:19:42         -1.34  -302.896989    6      1      
iter:   6  08:19:43         -2.27  -302.863472    1      1      
iter:   7  08:19:44         -2.38  -302.862746    2      1      
iter:   8  08:19:46         -2.60  -302.856234    2      1      
iter:   9  08:19:47         -3.22  -302.856020    1      1      
iter:  10  08:19:49         -3.30  -302.855748    1      1      
iter:  11  08:19:50         -3.72  -302.855737    0      1      
iter:  12  08:19:52         -3.77  -302.855695    1      1      
iter:  13  08:19:53         -4.37  -302.855694    0      1      

Converged after 13 iterations.

Dipole moment: (7.305074, -18.810332, 5.791308) |e|*Ang

Energy contributions relative to reference atoms: (reference = -53998.593513)

Kinetic:       +382.323339
Potential:     -382.337898
External:        +0.000000
XC:            -312.287779
Entropy (-ST):   -0.000000
Local:           +9.446644
--------------------------
Free energy:   -302.855694
Extrapolated:  -302.855694

Fermi level: -0.35206

 Band  Eigenvalues  Occupancy
    0    -37.44155    2.00000
    1    -33.14528    2.00000
    2    -32.53137    2.00000
    3    -23.91087    2.00000
    4    -22.91254    2.00000
    5    -22.21444    2.00000
    6    -22.01325    2.00000
    7    -21.74864    2.00000
    8    -21.64946    2.00000
    9    -21.45338    2.00000
   10    -21.40141    2.00000
   11    -21.32072    2.00000
   12    -21.12252    2.00000
   13    -21.02712    2.00000
   14    -20.97367    2.00000
   15    -20.88086    2.00000
   16    -20.81744    2.00000
   17    -20.65548    2.00000
   18    -20.53948    2.00000
   19    -20.49416    2.00000
   20    -20.35368    2.00000
   21    -20.30471    2.00000
   22    -20.13079    2.00000
   23    -19.93871    2.00000
   24    -19.84461    2.00000
   25    -19.77613    2.00000
   26    -19.39474    2.00000
   27    -12.53086    2.00000
   28    -10.00919    2.00000
   29     -9.96557    2.00000
   30     -9.83014    2.00000
   31     -9.59375    2.00000
   32     -9.52162    2.00000
   33     -9.43137    2.00000
   34     -9.28826    2.00000
   35     -9.19752    2.00000
   36     -9.17495    2.00000
   37     -9.08845    2.00000
   38     -8.96249    2.00000
   39     -8.92140    2.00000
   40     -8.74773    2.00000
   41     -8.69278    2.00000
   42     -8.63724    2.00000
   43     -8.50527    2.00000
   44     -8.44153    2.00000
   45     -8.41843    2.00000
   46     -8.14952    2.00000
   47     -8.07364    2.00000
   48     -7.96674    2.00000
   49     -7.88686    2.00000
   50     -7.81338    2.00000
   51     -7.63457    2.00000
   52     -7.48443    2.00000
   53     -7.45400    2.00000
   54     -7.18524    2.00000
   55     -6.92185    2.00000
   56     -6.74104    2.00000
   57     -6.57417    2.00000
   58     -6.54308    2.00000
   59     -6.32415    2.00000
   60     -6.13285    2.00000
   61     -6.04599    2.00000
   62     -5.92434    2.00000
   63     -5.81975    2.00000
   64     -5.70028    2.00000
   65     -5.56914    2.00000
   66     -5.47322    2.00000
   67     -5.46397    2.00000
   68     -5.28928    2.00000
   69     -5.07437    2.00000
   70     -4.95759    2.00000
   71     -4.87999    2.00000
   72     -4.78717    2.00000
   73     -4.61936    2.00000
   74     -4.51323    2.00000
   75     -4.37517    2.00000
   76     -4.31049    2.00000
   77     -4.16472    2.00000
   78     -4.03685    2.00000
   79     -3.96133    2.00000
   80     -3.82616    2.00000
   81     -3.71238    2.00000
   82     -3.59038    2.00000
   83     -3.55060    2.00000
   84     -3.50643    2.00000
   85     -3.44487    2.00000
   86     -3.32548    2.00000
   87     -3.19335    2.00000
   88     -3.13825    2.00000
   89     -3.09732    2.00000
   90     -2.96184    2.00000
   91     -2.91941    2.00000
   92     -2.87474    2.00000
   93     -2.81250    2.00000
   94     -2.76794    2.00000
   95     -2.72693    2.00000
   96     -2.62102    2.00000
   97     -2.49850    2.00000
   98     -2.15462    2.00000
   99      1.44558    0.00000
  100      3.63770    0.00000
  101      3.69914    0.00000
  102      3.78713    0.00000
  103      4.03922    0.00000
  104      4.39001    0.00000
  105      4.91303    0.00000
  106      5.54235    0.00000
  107      5.56542    0.00000
  108      5.72404    0.00000
  109      6.00758    0.00000
  110      6.06795    0.00000
  111      6.19893    0.00000
  112      6.31039    0.00000
  113      6.41583    0.00000
  114      6.46732    0.00000
  115      6.64558    0.00000
  116      6.75912    0.00000
  117      7.12082    0.00000
  118      7.29536    0.00000
  119      7.37246    0.00000
  120      7.86096    0.00000
  121      7.92369    0.00000
  122      8.08654    0.00000

Gap: 3.600 eV
Transition (v -> c):
  (s=0, k=0, n=98, [0.00, 0.00, 0.00]) -> (s=0, k=0, n=99, [0.00, 0.00, 0.00])

Forces in eV/Ang:
  0 O     0.32206   -0.73209   -0.62102
  1 O    -1.35663    1.41480   -2.34550
  2 O    -0.54872   -1.26956    1.02002
  3 O    -0.00916   -0.46036    2.02026
  4 O    -0.26569    0.00713   -0.01681
  5 O    -2.76123    0.93049   -0.39907
  6 O    -0.32068    0.34331    1.63789
  7 O    -0.78647    0.23298    0.67703
  8 O     0.68887    0.20280   -0.81673
  9 O    -1.70133   -1.36810    1.15825
 10 O    19.04323    2.42013   16.05668
 11 O     0.36037   -1.07727    0.81516
 12 O    -1.56646   -0.35988    0.27711
 13 O     1.44456   -0.40889    0.05019
 14 O     0.36945   -0.34946    0.83144
 15 O    -1.37363   -0.70191   -0.96847
 16 O   -10.67985    4.35256   -6.28075
 17 O     2.05299   -1.80955    1.65622
 18 O    -0.36653   -0.54364    1.02233
 19 O    -1.38591    0.98037   -0.62480
 20 O     0.34599    0.07420    2.79683
 21 O    -0.25274   -0.08658   -1.11332
 22 O    -1.46491   -0.24173   -1.32546
 23 O    -0.46341   -0.99850   -0.77773
 24 H    -0.72244   -0.29977    0.66775
 25 H     0.20346    1.02085   -0.01178
 26 H     0.39864   -0.70074    0.88671
 27 H     1.28265   -0.07740    1.55335
 28 H    -0.31778    1.72396   -0.25870
 29 H     0.39116   -0.38864   -0.42889
 30 H     0.24352    0.33600   -1.29064
 31 H    -0.75330    0.25671   -0.68868
 32 H     0.11911    0.12418   -0.59502
 33 H     0.36663    0.00571    0.89607
 34 H     0.76126   -0.27635    0.52203
 35 H     1.75999   -0.34176   -0.54079
 36 H     0.33601   -0.22145   -1.47591
 37 H    -0.31757   -0.32749   -0.17177
 38 H     1.05502    0.24391    0.02644
 39 H     0.48968   -0.27036   -0.74771
 40 H    -1.30187   -0.43386    0.84583
 41 H     0.23177   -0.36614    0.13476
 42 H    -0.11182    1.10310   -0.84788
 43 H     1.52798    0.17581   -0.45469
 44 H     1.85493    3.41490   -0.49018
 45 H     1.72516   -1.07183    0.77395
 46 H    -0.32840    0.39377   -0.03487
 47 H     0.01788    0.37480   -0.51789
 48 H     0.93984   -0.27221   -0.06015
 49 H     0.83109    1.21621   -0.09837
 50 H    -0.66789    0.12693   -0.37582
 51 H    -0.33298    0.19752    0.33834
 52 H    -1.67774   -0.11477    0.09332
 53 H     1.01078    0.66591   -1.24667
 54 H     0.49957    0.76406    0.21036
 55 H     0.58348   -0.56211    0.84507
 56 H   -37.51969   35.90761  -30.65424
 57 H    -0.79798    1.18397   -2.35193
 58 H    -1.39538    1.27254   -0.76452
 59 H    -0.73087   -0.02908   -0.54350
 60 H    -0.10390    0.49482   -0.79921
 61 H     0.13660    0.19153   -0.40701
 62 H     0.15280   -1.68192    0.29545
 63 H     1.29589    0.67456    0.36075
 64 H     0.23095   -0.00781   -1.54213
 65 H    -0.40433   -0.40377   -1.10296
 66 H     0.19941    0.10219    0.30269
 67 H     0.13620   -0.18849    0.18869
 68 H     0.88115    1.35453    0.41090
 69 H     0.29549   -1.16390    0.36791
 70 H     0.41053    0.26656    0.15180
 71 H     0.49826    1.44066    0.84059
 72 Na   26.94057  -46.31473   22.95097

System changes: positions 

Initializing position-dependent things.

Density initialized from wave functions
       .---------------------.  
      /|                     |  
     / |     H               |  
    /  |                   H |  
   /   | H  OH             O |  
  / H OH       OHH    H      |  
 *H   H|      H O HHO        |  
 |     O      H   H  OH      |  
 | H  O| H   OH           H  |  
 |    H|  HHO  H    HH O     |  
 |     O   H      O O  HO    |  
 |     .Ha--H-O-H--H--H------.  
 |    /        H   O      H /   
 |   /H  OH  O     H       /    
 |  /  H     H            /     
 | /             O       /      
 |/  OH         H  H    /       
 *---------------------*        

Positions:
   0 O      2.819352    5.591635    3.145978    ( 0.0000,  0.0000,  0.0000)
   1 O      3.099878    9.485433    3.089729    ( 0.0000,  0.0000,  0.0000)
   2 O      0.556128    5.696986    0.341828    ( 0.0000,  0.0000,  0.0000)
   3 O      3.936437    2.777355    1.804151    ( 0.0000,  0.0000,  0.0000)
   4 O      6.478930    3.280110    2.503061    ( 0.0000,  0.0000,  0.0000)
   5 O      4.455506    6.050945    5.298127    ( 0.0000,  0.0000,  0.0000)
   6 O      2.310278    9.375705    5.600063    ( 0.0000,  0.0000,  0.0000)
   7 O      5.800224    7.625960    1.605661    ( 0.0000,  0.0000,  0.0000)
   8 O      6.338031    1.347536    9.702065    ( 0.0000,  0.0000,  0.0000)
   9 O      2.581284    7.108049    7.055614    ( 0.0000,  0.0000,  0.0000)
  10 O      1.628583    9.167841    0.832238    ( 0.0000,  0.0000,  0.0000)
  11 O      1.502727    3.972196    6.005316    ( 0.0000,  0.0000,  0.0000)
  12 O      5.088566    2.974001   -0.969603    ( 0.0000,  0.0000,  0.0000)
  13 O      0.274709    5.873334    4.463671    ( 0.0000,  0.0000,  0.0000)
  14 O      1.295812    2.682082   -0.398258    ( 0.0000,  0.0000,  0.0000)
  15 O      5.265657    8.403919    4.141362    ( 0.0000,  0.0000,  0.0000)
  16 O     -0.778122    0.441671   -0.782817    ( 0.0000,  0.0000,  0.0000)
  17 O      6.539850    4.846949    6.315385    ( 0.0000,  0.0000,  0.0000)
  18 O      3.971578    2.638885    5.721287    ( 0.0000,  0.0000,  0.0000)
  19 O     -0.343742   10.603617    5.997080    ( 0.0000,  0.0000,  0.0000)
  20 O     -0.244888    6.811711   -1.934480    ( 0.0000,  0.0000,  0.0000)
  21 O      3.208065    7.270921    0.766221    ( 0.0000,  0.0000,  0.0000)
  22 O      7.730402    5.626574    2.429046    ( 0.0000,  0.0000,  0.0000)
  23 O     -2.694251   10.717932    4.758423    ( 0.0000,  0.0000,  0.0000)
  24 H      1.966268    6.024496    3.405193    ( 0.0000,  0.0000,  0.0000)
  25 H      2.624071    4.597421    3.083064    ( 0.0000,  0.0000,  0.0000)
  26 H      3.334178   10.384399    2.567283    ( 0.0000,  0.0000,  0.0000)
  27 H      2.379537    9.228641    2.357196    ( 0.0000,  0.0000,  0.0000)
  28 H      0.817894    4.686069    0.355449    ( 0.0000,  0.0000,  0.0000)
  29 H     -0.144705    5.740803    1.148479    ( 0.0000,  0.0000,  0.0000)
  30 H      4.088568    3.201571    0.949517    ( 0.0000,  0.0000,  0.0000)
  31 H      4.843781    2.937223    2.290221    ( 0.0000,  0.0000,  0.0000)
  32 H      6.574025    2.475645    1.892620    ( 0.0000,  0.0000,  0.0000)
  33 H      6.389519    2.783395    3.381619    ( 0.0000,  0.0000,  0.0000)
  34 H      3.883326    5.840263    4.450434    ( 0.0000,  0.0000,  0.0000)
  35 H      3.618770    6.305123    5.911523    ( 0.0000,  0.0000,  0.0000)
  36 H      2.471253    9.614603    4.660715    ( 0.0000,  0.0000,  0.0000)
  37 H      1.576169    9.999491    5.850087    ( 0.0000,  0.0000,  0.0000)
  38 H      5.532630    7.826654    2.583090    ( 0.0000,  0.0000,  0.0000)
  39 H      4.845526    7.419392    1.334776    ( 0.0000,  0.0000,  0.0000)
  40 H      7.143274    1.202633    9.048352    ( 0.0000,  0.0000,  0.0000)
  41 H      6.004424    0.429045    9.939340    ( 0.0000,  0.0000,  0.0000)
  42 H      2.678798    7.985722    6.634591    ( 0.0000,  0.0000,  0.0000)
  43 H      1.528716    6.936987    7.060987    ( 0.0000,  0.0000,  0.0000)
  44 H      1.842045   10.033666    0.547612    ( 0.0000,  0.0000,  0.0000)
  45 H      2.348189    8.503407    0.578184    ( 0.0000,  0.0000,  0.0000)
  46 H      2.409410    3.624734    5.692082    ( 0.0000,  0.0000,  0.0000)
  47 H      1.051148    4.588271    5.359165    ( 0.0000,  0.0000,  0.0000)
  48 H      5.676962    3.673755   -1.380718    ( 0.0000,  0.0000,  0.0000)
  49 H      5.427835    2.102895   -0.558660    ( 0.0000,  0.0000,  0.0000)
  50 H      0.102069    6.383755    5.294122    ( 0.0000,  0.0000,  0.0000)
  51 H     -0.466395    5.810165    3.768244    ( 0.0000,  0.0000,  0.0000)
  52 H      0.355175    2.637965   -0.602978    ( 0.0000,  0.0000,  0.0000)
  53 H      1.501912    3.186143   -1.220519    ( 0.0000,  0.0000,  0.0000)
  54 H      4.891358    7.502752    4.543622    ( 0.0000,  0.0000,  0.0000)
  55 H      4.447453    8.825775    3.630231    ( 0.0000,  0.0000,  0.0000)
  56 H      0.161159    0.363013   -0.292066    ( 0.0000,  0.0000,  0.0000)
  57 H     -0.583441    1.001938   -1.573036    ( 0.0000,  0.0000,  0.0000)
  58 H      5.846656    5.399301    5.952450    ( 0.0000,  0.0000,  0.0000)
  59 H      7.259891    5.411106    6.723813    ( 0.0000,  0.0000,  0.0000)
  60 H      4.372560    2.696379    6.726327    ( 0.0000,  0.0000,  0.0000)
  61 H      3.453111    1.777057    5.846767    ( 0.0000,  0.0000,  0.0000)
  62 H     -1.283829   10.927733    5.581063    ( 0.0000,  0.0000,  0.0000)
  63 H      0.059324   11.481658    5.802195    ( 0.0000,  0.0000,  0.0000)
  64 H     -0.119381    6.295429   -0.966034    ( 0.0000,  0.0000,  0.0000)
  65 H     -0.573211    7.692650   -1.544194    ( 0.0000,  0.0000,  0.0000)
  66 H      3.068384    6.956030   -0.207917    ( 0.0000,  0.0000,  0.0000)
  67 H      2.739897    6.595953    1.335810    ( 0.0000,  0.0000,  0.0000)
  68 H      7.149025    4.685823    2.343895    ( 0.0000,  0.0000,  0.0000)
  69 H      7.090778    6.401035    2.141381    ( 0.0000,  0.0000,  0.0000)
  70 H     -3.625596   11.033404    5.092245    ( 0.0000,  0.0000,  0.0000)
  71 H     -2.935770    9.709179    4.452198    ( 0.0000,  0.0000,  0.0000)
  72 Na     0.500001   -0.000002    0.000003    ( 0.0000,  0.0000,  0.0000)

Unit cell:
           periodic     x           y           z      points  spacing
  1. axis:    yes    8.956370    0.000000    0.000000    44     0.2036
  2. axis:    yes    0.000000    8.956370    0.000000    44     0.2036
  3. axis:    yes    0.000000    0.000000    8.956370    44     0.2036

  Lengths:   8.956370   8.956370   8.956370
  Angles:   90.000000  90.000000  90.000000

Effective grid spacing dv^(1/3) = 0.2036

                     log10-error:    total        iterations:
           time      wfs    density  energy       fermi  poisson
iter:   1  08:19:58          +inf  -302.855673    0      1      
iter:   2  08:19:59         -4.18  -302.855670    0      1      
iter:   3  08:20:01         -4.22  -302.855662    1      1      

Converged after 3 iterations.

Dipole moment: (7.297752, -18.814860, 5.791947) |e|*Ang

Energy contributions relative to reference atoms: (reference = -53998.593513)

Kinetic:       +382.376070
Potential:     -382.406463
External:        +0.000000
XC:            -312.305041
Entropy (-ST):   -0.000000
Local:           +9.479771
--------------------------
Free energy:   -302.855662
Extrapolated:  -302.855662

Fermi level: -0.35227

 Band  Eigenvalues  Occupancy
    0    -37.44112    2.00000
    1    -33.14501    2.00000
    2    -32.53089    2.00000
    3    -23.91322    2.00000
    4    -22.91386    2.00000
    5    -22.21383    2.00000
    6    -22.01351    2.00000
    7    -21.74913    2.00000
    8    -21.65070    2.00000
    9    -21.45427    2.00000
   10    -21.40205    2.00000
   11    -21.32155    2.00000
   12    -21.12365    2.00000
   13    -21.02822    2.00000
   14    -20.97391    2.00000
   15    -20.88103    2.00000
   16    -20.81770    2.00000
   17    -20.65649    2.00000
   18    -20.54049    2.00000
   19    -20.49485    2.00000
   20    -20.35591    2.00000
   21    -20.30593    2.00000
   22    -20.13172    2.00000
   23    -19.93782    2.00000
   24    -19.84582    2.00000
   25    -19.77740    2.00000
   26    -19.39392    2.00000
   27    -12.53324    2.00000
   28    -10.00914    2.00000
   29     -9.96548    2.00000
   30     -9.82980    2.00000
   31     -9.59423    2.00000
   32     -9.52182    2.00000
   33     -9.43167    2.00000
   34     -9.28892    2.00000
   35     -9.19773    2.00000
   36     -9.17588    2.00000
   37     -9.08983    2.00000
   38     -8.96392    2.00000
   39     -8.92249    2.00000
   40     -8.74843    2.00000
   41     -8.69369    2.00000
   42     -8.63831    2.00000
   43     -8.50559    2.00000
   44     -8.44225    2.00000
   45     -8.41883    2.00000
   46     -8.14987    2.00000
   47     -8.07411    2.00000
   48     -7.96726    2.00000
   49     -7.88736    2.00000
   50     -7.81275    2.00000
   51     -7.63398    2.00000
   52     -7.48467    2.00000
   53     -7.45541    2.00000
   54     -7.18569    2.00000
   55     -6.92157    2.00000
   56     -6.74137    2.00000
   57     -6.57378    2.00000
   58     -6.54341    2.00000
   59     -6.32379    2.00000
   60     -6.13285    2.00000
   61     -6.04616    2.00000
   62     -5.92456    2.00000
   63     -5.81973    2.00000
   64     -5.70021    2.00000
   65     -5.56919    2.00000
   66     -5.47367    2.00000
   67     -5.46466    2.00000
   68     -5.28988    2.00000
   69     -5.07476    2.00000
   70     -4.95834    2.00000
   71     -4.88101    2.00000
   72     -4.78829    2.00000
   73     -4.61950    2.00000
   74     -4.51356    2.00000
   75     -4.37607    2.00000
   76     -4.31083    2.00000
   77     -4.16519    2.00000
   78     -4.03692    2.00000
   79     -3.96177    2.00000
   80     -3.82647    2.00000
   81     -3.71286    2.00000
   82     -3.59120    2.00000
   83     -3.55088    2.00000
   84     -3.50713    2.00000
   85     -3.44573    2.00000
   86     -3.32529    2.00000
   87     -3.19318    2.00000
   88     -3.13821    2.00000
   89     -3.09740    2.00000
   90     -2.96272    2.00000
   91     -2.92026    2.00000
   92     -2.87540    2.00000
   93     -2.81270    2.00000
   94     -2.76842    2.00000
   95     -2.72651    2.00000
   96     -2.62055    2.00000
   97     -2.49808    2.00000
   98     -2.15497    2.00000
   99      1.44550    0.00000
  100      3.63784    0.00000
  101      3.69900    0.00000
  102      3.78692    0.00000
  103      4.03921    0.00000
  104      4.38991    0.00000
  105      4.91315    0.00000
  106      5.54267    0.00000
  107      5.56550    0.00000
  108      5.72412    0.00000
  109      6.00775    0.00000
  110      6.06811    0.00000
  111      6.19844    0.00000
  112      6.31006    0.00000
  113      6.41590    0.00000
  114      6.46732    0.00000
  115      6.64587    0.00000
  116      6.75915    0.00000
  117      7.12098    0.00000
  118      7.29565    0.00000
  119      7.37268    0.00000
  120      7.86166    0.00000
  121      7.92451    0.00000
  122      8.08706    0.00000

Gap: 3.600 eV
Transition (v -> c):
  (s=0, k=0, n=98, [0.00, 0.00, 0.00]) -> (s=0, k=0, n=99, [0.00, 0.00, 0.00])

Forces in eV/Ang:
  0 O     0.31667   -0.72709   -0.63035
  1 O    -1.37182    1.41458   -2.35552
  2 O    -0.53678   -1.25676    1.03099
  3 O    -0.01699   -0.45602    2.00636
  4 O    -0.25637   -0.00208   -0.02236
  5 O    -2.76405    0.93499   -0.39741
  6 O    -0.32657    0.34512    1.63580
  7 O    -0.77895    0.23629    0.67384
  8 O     0.69508    0.20229   -0.82795
  9 O    -1.70626   -1.36433    1.16736
 10 O    19.03509    2.41529   16.04088
 11 O     0.36040   -1.07435    0.82247
 12 O    -1.57408   -0.35865    0.29238
 13 O     1.45451   -0.40143    0.04258
 14 O     0.36190   -0.35740    0.83071
 15 O    -1.37043   -0.69907   -0.96563
 16 O   -10.66410    4.35231   -6.27403
 17 O     2.06055   -1.81296    1.66312
 18 O    -0.37416   -0.55435    1.02542
 19 O    -1.37617    0.97871   -0.62569
 20 O     0.34349    0.08334    2.81418
 21 O    -0.26083   -0.08658   -1.11734
 22 O    -1.46190   -0.23953   -1.33414
 23 O    -0.46042   -1.00218   -0.77582
 24 H    -0.72325   -0.29786    0.66796
 25 H     0.20214    1.01439   -0.01125
 26 H     0.39873   -0.70214    0.88683
 27 H     1.27908   -0.07971    1.54887
 28 H    -0.31882    1.72286   -0.25742
 29 H     0.38861   -0.39072   -0.42623
 30 H     0.24331    0.33555   -1.28975
 31 H    -0.74727    0.25687   -0.68446
 32 H     0.12003    0.11972   -0.60012
 33 H     0.36612    0.00743    0.89430
 34 H     0.75891   -0.27794    0.51736
 35 H     1.75987   -0.34160   -0.54134
 36 H     0.33529   -0.22142   -1.47308
 37 H    -0.32022   -0.32406   -0.16959
 38 H     1.05280    0.24326    0.02666
 39 H     0.48757   -0.27044   -0.74710
 40 H    -1.29402   -0.43458    0.83865
 41 H     0.22990   -0.37059    0.13524
 42 H    -0.11270    1.10396   -0.84875
 43 H     1.53174    0.17809   -0.45640
 44 H     1.85879    3.42362   -0.49384
 45 H     1.72922   -1.07370    0.77255
 46 H    -0.31728    0.38919   -0.03882
 47 H     0.01185    0.38233   -0.52585
 48 H     0.94126   -0.26857   -0.06224
 49 H     0.82813    1.22286   -0.10094
 50 H    -0.66859    0.12905   -0.37243
 51 H    -0.33777    0.19721    0.33465
 52 H    -1.68101   -0.11394    0.09222
 53 H     1.01111    0.66563   -1.24721
 54 H     0.49929    0.76577    0.20897
 55 H     0.58379   -0.56367    0.84486
 56 H   -37.53196   35.91104  -30.62942
 57 H    -0.79841    1.18497   -2.35447
 58 H    -1.40541    1.28037   -0.76922
 59 H    -0.72809   -0.02796   -0.54215
 60 H    -0.10295    0.49587   -0.80138
 61 H     0.14051    0.19842   -0.40797
 62 H     0.15165   -1.68017    0.29434
 63 H     1.29415    0.67239    0.35932
 64 H     0.23039   -0.01022   -1.53808
 65 H    -0.40377   -0.40474   -1.10399
 66 H     0.20008    0.10234    0.30461
 67 H     0.13679   -0.18818    0.18823
 68 H     0.88055    1.35546    0.41146
 69 H     0.29591   -1.16494    0.36825
 70 H     0.41100    0.26575    0.15190
 71 H     0.49857    1.43885    0.84047
 72 Na   26.95544  -46.31674   22.92286

System changes: positions 

Initializing position-dependent things.

Density initialized from wave functions
       .---------------------.  
      /|                     |  
     / |     H               |  
    /  |                   H |  
   /   | H  OH             O |  
  / H OH       OHH    H      |  
 *H   H|      H O HHO        |  
 |     O      H   H  OH      |  
 | H  O| H   OH           H  |  
 |    H|  HHO  H    HH O     |  
 |     O   H      O O  HO    |  
 |     .Ha--H-O-H--H--H------.  
 |    /        H   O      H /   
 |   /H  OH  O     H       /    
 |  /  H     H            /     
 | /             O       /      
 |/  OH         H  H    /       
 *---------------------*        

Positions:
   0 O      2.819309    5.591558    3.145935    ( 0.0000,  0.0000,  0.0000)
   1 O      3.099838    9.485389    3.089673    ( 0.0000,  0.0000,  0.0000)
   2 O      0.556084    5.696990    0.341839    ( 0.0000,  0.0000,  0.0000)
   3 O      3.936439    2.777365    1.804211    ( 0.0000,  0.0000,  0.0000)
   4 O      6.478851    3.280083    2.503043    ( 0.0000,  0.0000,  0.0000)
   5 O      4.455481    6.050917    5.298166    ( 0.0000,  0.0000,  0.0000)
   6 O      2.310283    9.375663    5.600032    ( 0.0000,  0.0000,  0.0000)
   7 O      5.800184    7.625984    1.605654    ( 0.0000,  0.0000,  0.0000)
   8 O      6.338046    1.347552    9.702058    ( 0.0000,  0.0000,  0.0000)
   9 O      2.581341    7.108110    7.055693    ( 0.0000,  0.0000,  0.0000)
  10 O      1.628605    9.167866    0.832286    ( 0.0000,  0.0000,  0.0000)
  11 O      1.502782    3.972166    6.005341    ( 0.0000,  0.0000,  0.0000)
  12 O      5.088545    2.973941   -0.969618    ( 0.0000,  0.0000,  0.0000)
  13 O      0.274627    5.873355    4.463633    ( 0.0000,  0.0000,  0.0000)
  14 O      1.295874    2.682037   -0.398296    ( 0.0000,  0.0000,  0.0000)
  15 O      5.265716    8.403888    4.141380    ( 0.0000,  0.0000,  0.0000)
  16 O     -0.778140    0.441667   -0.782868    ( 0.0000,  0.0000,  0.0000)
  17 O      6.539892    4.846958    6.315347    ( 0.0000,  0.0000,  0.0000)
  18 O      3.971668    2.638945    5.721263    ( 0.0000,  0.0000,  0.0000)
  19 O     -0.343796   10.603612    5.996980    ( 0.0000,  0.0000,  0.0000)
  20 O     -0.244890    6.811688   -1.934358    ( 0.0000,  0.0000,  0.0000)
  21 O      3.208099    7.270939    0.766230    ( 0.0000,  0.0000,  0.0000)
  22 O      7.730410    5.626662    2.429046    ( 0.0000,  0.0000,  0.0000)
  23 O     -2.694305   10.717922    4.758372    ( 0.0000,  0.0000,  0.0000)
  24 H      1.966163    6.024246    3.405165    ( 0.0000,  0.0000,  0.0000)
  25 H      2.623912    4.597534    3.083089    ( 0.0000,  0.0000,  0.0000)
  26 H      3.333960   10.384451    2.567194    ( 0.0000,  0.0000,  0.0000)
  27 H      2.379522    9.228830    2.357486    ( 0.0000,  0.0000,  0.0000)
  28 H      0.818053    4.686183    0.355587    ( 0.0000,  0.0000,  0.0000)
  29 H     -0.144447    5.741377    1.148462    ( 0.0000,  0.0000,  0.0000)
  30 H      4.088611    3.201527    0.949523    ( 0.0000,  0.0000,  0.0000)
  31 H      4.843763    2.937178    2.289962    ( 0.0000,  0.0000,  0.0000)
  32 H      6.573911    2.475802    1.892776    ( 0.0000,  0.0000,  0.0000)
  33 H      6.389795    2.782903    3.381513    ( 0.0000,  0.0000,  0.0000)
  34 H      3.883311    5.840538    4.450623    ( 0.0000,  0.0000,  0.0000)
  35 H      3.618714    6.305061    5.911579    ( 0.0000,  0.0000,  0.0000)
  36 H      2.471293    9.614560    4.660617    ( 0.0000,  0.0000,  0.0000)
  37 H      1.576452    9.999743    5.849809    ( 0.0000,  0.0000,  0.0000)
  38 H      5.533013    7.826763    2.583211    ( 0.0000,  0.0000,  0.0000)
  39 H      4.845472    7.419636    1.334814    ( 0.0000,  0.0000,  0.0000)
  40 H      7.142692    1.202938    9.048231    ( 0.0000,  0.0000,  0.0000)
  41 H      6.004650    0.429125    9.939417    ( 0.0000,  0.0000,  0.0000)
  42 H      2.679039    7.985701    6.634650    ( 0.0000,  0.0000,  0.0000)
  43 H      1.528609    6.936940    7.061279    ( 0.0000,  0.0000,  0.0000)
  44 H      1.842011   10.033468    0.547485    ( 0.0000,  0.0000,  0.0000)
  45 H      2.347995    8.503519    0.578003    ( 0.0000,  0.0000,  0.0000)
  46 H      2.409152    3.624911    5.692085    ( 0.0000,  0.0000,  0.0000)
  47 H      1.051541    4.588120    5.359283    ( 0.0000,  0.0000,  0.0000)
  48 H      5.676864    3.673810   -1.380305    ( 0.0000,  0.0000,  0.0000)
  49 H      5.428024    2.102720   -0.558404    ( 0.0000,  0.0000,  0.0000)
  50 H      0.102150    6.383778    5.293998    ( 0.0000,  0.0000,  0.0000)
  51 H     -0.466284    5.810368    3.768246    ( 0.0000,  0.0000,  0.0000)
  52 H      0.355319    2.638027   -0.603280    ( 0.0000,  0.0000,  0.0000)
  53 H      1.501998    3.185933   -1.220677    ( 0.0000,  0.0000,  0.0000)
  54 H      4.891535    7.502565    4.543679    ( 0.0000,  0.0000,  0.0000)
  55 H      4.447606    8.826058    3.630375    ( 0.0000,  0.0000,  0.0000)
  56 H      0.160984    0.363102   -0.291819    ( 0.0000,  0.0000,  0.0000)
  57 H     -0.583281    1.001917   -1.572987    ( 0.0000,  0.0000,  0.0000)
  58 H      5.846896    5.399428    5.952832    ( 0.0000,  0.0000,  0.0000)
  59 H      7.259736    5.411087    6.724022    ( 0.0000,  0.0000,  0.0000)
  60 H      4.372513    2.696085    6.726561    ( 0.0000,  0.0000,  0.0000)
  61 H      3.453055    1.776972    5.846735    ( 0.0000,  0.0000,  0.0000)
  62 H     -1.283843   10.927721    5.581174    ( 0.0000,  0.0000,  0.0000)
  63 H      0.059564   11.481567    5.802099    ( 0.0000,  0.0000,  0.0000)
  64 H     -0.119636    6.295520   -0.966264    ( 0.0000,  0.0000,  0.0000)
  65 H     -0.573572    7.692490   -1.543956    ( 0.0000,  0.0000,  0.0000)
  66 H      3.068443    6.955992   -0.207919    ( 0.0000,  0.0000,  0.0000)
  67 H      2.739944    6.595984    1.335838    ( 0.0000,  0.0000,  0.0000)
  68 H      7.149223    4.685909    2.343528    ( 0.0000,  0.0000,  0.0000)
  69 H      7.090707    6.401151    2.141554    ( 0.0000,  0.0000,  0.0000)
  70 H     -3.625649   11.033496    5.092331    ( 0.0000,  0.0000,  0.0000)
  71 H     -2.935964    9.709254    4.452252    ( 0.0000,  0.0000,  0.0000)
  72 Na     0.500003   -0.000005    0.000007    ( 0.0000,  0.0000,  0.0000)

Unit cell:
           periodic     x           y           z      points  spacing
  1. axis:    yes    8.956370    0.000000    0.000000    44     0.2036
  2. axis:    yes    0.000000    8.956370    0.000000    44     0.2036
  3. axis:    yes    0.000000    0.000000    8.956370    44     0.2036

  Lengths:   8.956370   8.956370   8.956370
  Angles:   90.000000  90.000000  90.000000

Effective grid spacing dv^(1/3) = 0.2036

                     log10-error:    total        iterations:
           time      wfs    density  energy       fermi  poisson
iter:   1  08:20:05          +inf  -302.859362    1      1      
iter:   2  08:20:07         -4.23  -302.859360    0      1      
iter:   3  08:20:08         -4.28  -302.859353    1      1      

Converged after 3 iterations.

Dipole moment: (7.291281, -18.819921, 5.793923) |e|*Ang

Energy contributions relative to reference atoms: (reference = -53998.593513)

Kinetic:       +382.459670
Potential:     -382.469830
External:        +0.000000
XC:            -312.329733
Entropy (-ST):   -0.000000
Local:           +9.480540
--------------------------
Free energy:   -302.859353
Extrapolated:  -302.859353

Fermi level: -0.35245

 Band  Eigenvalues  Occupancy
    0    -37.43993    2.00000
    1    -33.14423    2.00000
    2    -32.52996    2.00000
    3    -23.91439    2.00000
    4    -22.91428    2.00000
    5    -22.21268    2.00000
    6    -22.01378    2.00000
    7    -21.74944    2.00000
    8    -21.65183    2.00000
    9    -21.45470    2.00000
   10    -21.40240    2.00000
   11    -21.32232    2.00000
   12    -21.12442    2.00000
   13    -21.02913    2.00000
   14    -20.97436    2.00000
   15    -20.88128    2.00000
   16    -20.81775    2.00000
   17    -20.65771    2.00000
   18    -20.54158    2.00000
   19    -20.49520    2.00000
   20    -20.35836    2.00000
   21    -20.30726    2.00000
   22    -20.13255    2.00000
   23    -19.93721    2.00000
   24    -19.84733    2.00000
   25    -19.77885    2.00000
   26    -19.39329    2.00000
   27    -12.53407    2.00000
   28    -10.00833    2.00000
   29     -9.96461    2.00000
   30     -9.82950    2.00000
   31     -9.59473    2.00000
   32     -9.52227    2.00000
   33     -9.43166    2.00000
   34     -9.28964    2.00000
   35     -9.19769    2.00000
   36     -9.17692    2.00000
   37     -9.09085    2.00000
   38     -8.96476    2.00000
   39     -8.92364    2.00000
   40     -8.74879    2.00000
   41     -8.69462    2.00000
   42     -8.63960    2.00000
   43     -8.50549    2.00000
   44     -8.44246    2.00000
   45     -8.41950    2.00000
   46     -8.15041    2.00000
   47     -8.07418    2.00000
   48     -7.96741    2.00000
   49     -7.88744    2.00000
   50     -7.81218    2.00000
   51     -7.63341    2.00000
   52     -7.48461    2.00000
   53     -7.45612    2.00000
   54     -7.18567    2.00000
   55     -6.92109    2.00000
   56     -6.74144    2.00000
   57     -6.57353    2.00000
   58     -6.54322    2.00000
   59     -6.32347    2.00000
   60     -6.13261    2.00000
   61     -6.04609    2.00000
   62     -5.92474    2.00000
   63     -5.81942    2.00000
   64     -5.70007    2.00000
   65     -5.56912    2.00000
   66     -5.47404    2.00000
   67     -5.46503    2.00000
   68     -5.29000    2.00000
   69     -5.07506    2.00000
   70     -4.95857    2.00000
   71     -4.88183    2.00000
   72     -4.78904    2.00000
   73     -4.61916    2.00000
   74     -4.51384    2.00000
   75     -4.37692    2.00000
   76     -4.31092    2.00000
   77     -4.16576    2.00000
   78     -4.03671    2.00000
   79     -3.96195    2.00000
   80     -3.82651    2.00000
   81     -3.71318    2.00000
   82     -3.59153    2.00000
   83     -3.55118    2.00000
   84     -3.50784    2.00000
   85     -3.44659    2.00000
   86     -3.32523    2.00000
   87     -3.19283    2.00000
   88     -3.13802    2.00000
   89     -3.09726    2.00000
   90     -2.96366    2.00000
   91     -2.92091    2.00000
   92     -2.87573    2.00000
   93     -2.81293    2.00000
   94     -2.76902    2.00000
   95     -2.72644    2.00000
   96     -2.62039    2.00000
   97     -2.49791    2.00000
   98     -2.15562    2.00000
   99      1.44577    0.00000
  100      3.63826    0.00000
  101      3.69905    0.00000
  102      3.78702    0.00000
  103      4.03932    0.00000
  104      4.39025    0.00000
  105      4.91327    0.00000
  106      5.54319    0.00000
  107      5.56595    0.00000
  108      5.72434    0.00000
  109      6.00805    0.00000
  110      6.06854    0.00000
  111      6.19823    0.00000
  112      6.30991    0.00000
  113      6.41613    0.00000
  114      6.46745    0.00000
  115      6.64625    0.00000
  116      6.75932    0.00000
  117      7.12102    0.00000
  118      7.29599    0.00000
  119      7.37309    0.00000
  120      7.86236    0.00000
  121      7.92546    0.00000
  122      8.08766    0.00000

Gap: 3.601 eV
Transition (v -> c):
  (s=0, k=0, n=98, [0.00, 0.00, 0.00]) -> (s=0, k=0, n=99, [0.00, 0.00, 0.00])

Forces in eV/Ang:
  0 O     0.31705   -0.72272   -0.62794
  1 O    -1.36449    1.42025   -2.34803
  2 O    -0.53385   -1.25548    1.02594
  3 O    -0.01942   -0.45660    2.00298
  4 O    -0.25784    0.00166   -0.01308
  5 O    -2.76255    0.93664   -0.39317
  6 O    -0.32240    0.34515    1.63041
  7 O    -0.77610    0.23731    0.67558
  8 O     0.68521    0.20789   -0.82176
  9 O    -1.70913   -1.36949    1.16784
 10 O    19.02486    2.40860   16.04461
 11 O     0.35553   -1.07683    0.83065
 12 O    -1.57235   -0.37211    0.29697
 13 O     1.45899   -0.40386    0.04454
 14 O     0.36478   -0.35502    0.82852
 15 O    -1.37065   -0.70017   -0.96527
 16 O   -10.66226    4.34993   -6.26828
 17 O     2.06723   -1.81939    1.66635
 18 O    -0.37643   -0.56135    1.02939
 19 O    -1.37367    0.98040   -0.62374
 20 O     0.34118    0.08564    2.80795
 21 O    -0.26001   -0.08755   -1.11752
 22 O    -1.46343   -0.23844   -1.33347
 23 O    -0.46247   -0.99959   -0.77544
 24 H    -0.72332   -0.29579    0.66785
 25 H     0.20264    1.00767   -0.01213
 26 H     0.40011   -0.70255    0.88810
 27 H     1.27398   -0.08361    1.54322
 28 H    -0.32002    1.72173   -0.25634
 29 H     0.38664   -0.39430   -0.42449
 30 H     0.24189    0.33477   -1.28904
 31 H    -0.74326    0.25737   -0.67921
 32 H     0.12174    0.11513   -0.60638
 33 H     0.36483    0.01106    0.89376
 34 H     0.75728   -0.28023    0.51251
 35 H     1.76062   -0.34109   -0.54108
 36 H     0.33597   -0.22300   -1.47075
 37 H    -0.32355   -0.32248   -0.16669
 38 H     1.05039    0.24277    0.02550
 39 H     0.48559   -0.27072   -0.74604
 40 H    -1.28337   -0.43709    0.83269
 41 H     0.22802   -0.37445    0.13570
 42 H    -0.11404    1.10565   -0.84948
 43 H     1.53613    0.18064   -0.45773
 44 H     1.86105    3.43388   -0.49697
 45 H     1.73233   -1.07665    0.77216
 46 H    -0.30698    0.38476   -0.04115
 47 H     0.00525    0.38891   -0.53199
 48 H     0.94347   -0.26587   -0.06486
 49 H     0.82479    1.23036   -0.10376
 50 H    -0.66947    0.13096   -0.36964
 51 H    -0.34226    0.19664    0.33144
 52 H    -1.68372   -0.11454    0.09260
 53 H     1.01251    0.66547   -1.24568
 54 H     0.49827    0.76874    0.20737
 55 H     0.58318   -0.56653    0.84480
 56 H   -37.54504   35.91551  -30.60398
 57 H    -0.79753    1.18576   -2.35620
 58 H    -1.41470    1.28653   -0.77390
 59 H    -0.72535   -0.02780   -0.54131
 60 H    -0.10232    0.49777   -0.80420
 61 H     0.14415    0.20399   -0.40966
 62 H     0.15118   -1.67856    0.29338
 63 H     1.29143    0.67029    0.35908
 64 H     0.23146   -0.01312   -1.53389
 65 H    -0.40245   -0.40416   -1.10516
 66 H     0.20014    0.10280    0.30563
 67 H     0.13685   -0.18828    0.18829
 68 H     0.87980    1.35642    0.41288
 69 H     0.29637   -1.16619    0.36764
 70 H     0.41192    0.26585    0.15077
 71 H     0.49952    1.43707    0.83982
 72 Na   26.96903  -46.31964   22.89656

System changes: positions 

Initializing position-dependent things.

Density initialized from wave functions
       .---------------------.  
      /|                     |  
     / |     H               |  
    /  |                   H |  
   /   | H  OH             O |  
  / H OH       OHH    H      |  
 *H   H|      H O HHO        |  
 |     O      H   H  OH      |  
 | H  O| H   OH           H  |  
 |    H|  HHO  H    HH O     |  
 |     O   H      O O  HO    |  
 |     .Ha--H-O-H--H--H------.  
 |    /        H   O      H /   
 |   /H  OH  O     H       /    
 |  /  H     H            /     
 | /             O       /      
 |/  OH         H  H    /       
 *---------------------*        

Positions:
   0 O      2.819265    5.591482    3.145893    ( 0.0000,  0.0000,  0.0000)
   1 O      3.099798    9.485346    3.089617    ( 0.0000,  0.0000,  0.0000)
   2 O      0.556041    5.696994    0.341850    ( 0.0000,  0.0000,  0.0000)
   3 O      3.936441    2.777375    1.804270    ( 0.0000,  0.0000,  0.0000)
   4 O      6.478772    3.280056    2.503024    ( 0.0000,  0.0000,  0.0000)
   5 O      4.455456    6.050890    5.298204    ( 0.0000,  0.0000,  0.0000)
   6 O      2.310289    9.375621    5.600002    ( 0.0000,  0.0000,  0.0000)
   7 O      5.800144    7.626007    1.605646    ( 0.0000,  0.0000,  0.0000)
   8 O      6.338061    1.347568    9.702051    ( 0.0000,  0.0000,  0.0000)
   9 O      2.581398    7.108172    7.055771    ( 0.0000,  0.0000,  0.0000)
  10 O      1.628627    9.167891    0.832335    ( 0.0000,  0.0000,  0.0000)
  11 O      1.502837    3.972136    6.005366    ( 0.0000,  0.0000,  0.0000)
  12 O      5.088524    2.973881   -0.969634    ( 0.0000,  0.0000,  0.0000)
  13 O      0.274545    5.873377    4.463595    ( 0.0000,  0.0000,  0.0000)
  14 O      1.295935    2.681993   -0.398335    ( 0.0000,  0.0000,  0.0000)
  15 O      5.265774    8.403857    4.141399    ( 0.0000,  0.0000,  0.0000)
  16 O     -0.778158    0.441664   -0.782921    ( 0.0000,  0.0000,  0.0000)
  17 O      6.539934    4.846967    6.315308    ( 0.0000,  0.0000,  0.0000)
  18 O      3.971758    2.639005    5.721240    ( 0.0000,  0.0000,  0.0000)
  19 O     -0.343851   10.603608    5.996881    ( 0.0000,  0.0000,  0.0000)
  20 O     -0.244892    6.811665   -1.934235    ( 0.0000,  0.0000,  0.0000)
  21 O      3.208133    7.270957    0.766238    ( 0.0000,  0.0000,  0.0000)
  22 O      7.730418    5.626751    2.429046    ( 0.0000,  0.0000,  0.0000)
  23 O     -2.694359   10.717912    4.758322    ( 0.0000,  0.0000,  0.0000)
  24 H      1.966057    6.023995    3.405137    ( 0.0000,  0.0000,  0.0000)
  25 H      2.623754    4.597647    3.083114    ( 0.0000,  0.0000,  0.0000)
  26 H      3.333743   10.384504    2.567106    ( 0.0000,  0.0000,  0.0000)
  27 H      2.379507    9.229019    2.357779    ( 0.0000,  0.0000,  0.0000)
  28 H      0.818212    4.686298    0.355725    ( 0.0000,  0.0000,  0.0000)
  29 H     -0.144189    5.741951    1.148444    ( 0.0000,  0.0000,  0.0000)
  30 H      4.088654    3.201484    0.949528    ( 0.0000,  0.0000,  0.0000)
  31 H      4.843745    2.937133    2.289703    ( 0.0000,  0.0000,  0.0000)
  32 H      6.573797    2.475959    1.892931    ( 0.0000,  0.0000,  0.0000)
  33 H      6.390071    2.782411    3.381407    ( 0.0000,  0.0000,  0.0000)
  34 H      3.883297    5.840813    4.450813    ( 0.0000,  0.0000,  0.0000)
  35 H      3.618660    6.304998    5.911634    ( 0.0000,  0.0000,  0.0000)
  36 H      2.471332    9.614516    4.660517    ( 0.0000,  0.0000,  0.0000)
  37 H      1.576735    9.999995    5.849531    ( 0.0000,  0.0000,  0.0000)
  38 H      5.533398    7.826871    2.583332    ( 0.0000,  0.0000,  0.0000)
  39 H      4.845418    7.419879    1.334851    ( 0.0000,  0.0000,  0.0000)
  40 H      7.142109    1.203242    9.048111    ( 0.0000,  0.0000,  0.0000)
  41 H      6.004876    0.429204    9.939494    ( 0.0000,  0.0000,  0.0000)
  42 H      2.679280    7.985681    6.634708    ( 0.0000,  0.0000,  0.0000)
  43 H      1.528503    6.936895    7.061569    ( 0.0000,  0.0000,  0.0000)
  44 H      1.841978   10.033272    0.547358    ( 0.0000,  0.0000,  0.0000)
  45 H      2.347802    8.503630    0.577823    ( 0.0000,  0.0000,  0.0000)
  46 H      2.408893    3.625088    5.692088    ( 0.0000,  0.0000,  0.0000)
  47 H      1.051935    4.587969    5.359401    ( 0.0000,  0.0000,  0.0000)
  48 H      5.676767    3.673865   -1.379892    ( 0.0000,  0.0000,  0.0000)
  49 H      5.428213    2.102546   -0.558148    ( 0.0000,  0.0000,  0.0000)
  50 H      0.102231    6.383802    5.293874    ( 0.0000,  0.0000,  0.0000)
  51 H     -0.466174    5.810572    3.768249    ( 0.0000,  0.0000,  0.0000)
  52 H      0.355461    2.638089   -0.603582    ( 0.0000,  0.0000,  0.0000)
  53 H      1.502085    3.185725   -1.220835    ( 0.0000,  0.0000,  0.0000)
  54 H      4.891712    7.502379    4.543736    ( 0.0000,  0.0000,  0.0000)
  55 H      4.447759    8.826342    3.630520    ( 0.0000,  0.0000,  0.0000)
  56 H      0.160773    0.363225   -0.291601    ( 0.0000,  0.0000,  0.0000)
  57 H     -0.583122    1.001898   -1.572940    ( 0.0000,  0.0000,  0.0000)
  58 H      5.847134    5.399557    5.953214    ( 0.0000,  0.0000,  0.0000)
  59 H      7.259579    5.411069    6.724230    ( 0.0000,  0.0000,  0.0000)
  60 H      4.372465    2.695792    6.726794    ( 0.0000,  0.0000,  0.0000)
  61 H      3.452999    1.776887    5.846704    ( 0.0000,  0.0000,  0.0000)
  62 H     -1.283857   10.927708    5.581284    ( 0.0000,  0.0000,  0.0000)
  63 H      0.059804   11.481477    5.802003    ( 0.0000,  0.0000,  0.0000)
  64 H     -0.119892    6.295611   -0.966496    ( 0.0000,  0.0000,  0.0000)
  65 H     -0.573933    7.692330   -1.543719    ( 0.0000,  0.0000,  0.0000)
  66 H      3.068503    6.955954   -0.207919    ( 0.0000,  0.0000,  0.0000)
  67 H      2.739991    6.596015    1.335865    ( 0.0000,  0.0000,  0.0000)
  68 H      7.149423    4.685997    2.343161    ( 0.0000,  0.0000,  0.0000)
  69 H      7.090637    6.401265    2.141727    ( 0.0000,  0.0000,  0.0000)
  70 H     -3.625702   11.033589    5.092417    ( 0.0000,  0.0000,  0.0000)
  71 H     -2.936158    9.709330    4.452308    ( 0.0000,  0.0000,  0.0000)
  72 Na     0.500006   -0.000011    0.000012    ( 0.0000,  0.0000,  0.0000)

Unit cell:
           periodic     x           y           z      points  spacing
  1. axis:    yes    8.956370    0.000000    0.000000    44     0.2036
  2. axis:    yes    0.000000    8.956370    0.000000    44     0.2036
  3. axis:    yes    0.000000    0.000000    8.956370    44     0.2036

  Lengths:   8.956370   8.956370   8.956370
  Angles:   90.000000  90.000000  90.000000

Effective grid spacing dv^(1/3) = 0.2036

                     log10-error:    total        iterations:
           time      wfs    density  energy       fermi  poisson
iter:   1  08:20:13          +inf  -302.866773    1      1      
iter:   2  08:20:15         -4.25  -302.866771    0      1      
iter:   3  08:20:16         -4.29  -302.866764    1      1      

Converged after 3 iterations.

Dipole moment: (7.284609, -18.824821, 5.795625) |e|*Ang

Energy contributions relative to reference atoms: (reference = -53998.593513)

Kinetic:       +382.549655
Potential:     -382.541297
External:        +0.000000
XC:            -312.355460
Entropy (-ST):   -0.000000
Local:           +9.480338
--------------------------
Free energy:   -302.866764
Extrapolated:  -302.866764

Fermi level: -0.35258

 Band  Eigenvalues  Occupancy
    0    -37.43717    2.00000
    1    -33.14188    2.00000
    2    -32.52739    2.00000
    3    -23.91557    2.00000
    4    -22.91464    2.00000
    5    -22.21163    2.00000
    6    -22.01409    2.00000
    7    -21.74970    2.00000
    8    -21.65289    2.00000
    9    -21.45514    2.00000
   10    -21.40278    2.00000
   11    -21.32309    2.00000
   12    -21.12518    2.00000
   13    -21.03006    2.00000
   14    -20.97486    2.00000
   15    -20.88153    2.00000
   16    -20.81776    2.00000
   17    -20.65897    2.00000
   18    -20.54267    2.00000
   19    -20.49551    2.00000
   20    -20.36085    2.00000
   21    -20.30850    2.00000
   22    -20.13334    2.00000
   23    -19.93644    2.00000
   24    -19.84878    2.00000
   25    -19.78025    2.00000
   26    -19.39249    2.00000
   27    -12.53495    2.00000
   28    -10.00758    2.00000
   29     -9.96380    2.00000
   30     -9.82933    2.00000
   31     -9.59519    2.00000
   32     -9.52271    2.00000
   33     -9.43163    2.00000
   34     -9.29035    2.00000
   35     -9.19766    2.00000
   36     -9.17798    2.00000
   37     -9.09193    2.00000
   38     -8.96565    2.00000
   39     -8.92482    2.00000
   40     -8.74919    2.00000
   41     -8.69560    2.00000
   42     -8.64086    2.00000
   43     -8.50541    2.00000
   44     -8.44271    2.00000
   45     -8.42009    2.00000
   46     -8.15093    2.00000
   47     -8.07425    2.00000
   48     -7.96755    2.00000
   49     -7.88752    2.00000
   50     -7.81151    2.00000
   51     -7.63273    2.00000
   52     -7.48456    2.00000
   53     -7.45679    2.00000
   54     -7.18568    2.00000
   55     -6.92072    2.00000
   56     -6.74148    2.00000
   57     -6.57336    2.00000
   58     -6.54307    2.00000
   59     -6.32323    2.00000
   60     -6.13236    2.00000
   61     -6.04602    2.00000
   62     -5.92487    2.00000
   63     -5.81907    2.00000
   64     -5.69996    2.00000
   65     -5.56902    2.00000
   66     -5.47436    2.00000
   67     -5.46537    2.00000
   68     -5.29012    2.00000
   69     -5.07537    2.00000
   70     -4.95881    2.00000
   71     -4.88268    2.00000
   72     -4.78980    2.00000
   73     -4.61885    2.00000
   74     -4.51410    2.00000
   75     -4.37778    2.00000
   76     -4.31097    2.00000
   77     -4.16633    2.00000
   78     -4.03652    2.00000
   79     -3.96210    2.00000
   80     -3.82650    2.00000
   81     -3.71347    2.00000
   82     -3.59190    2.00000
   83     -3.55148    2.00000
   84     -3.50860    2.00000
   85     -3.44745    2.00000
   86     -3.32509    2.00000
   87     -3.19246    2.00000
   88     -3.13779    2.00000
   89     -3.09714    2.00000
   90     -2.96463    2.00000
   91     -2.92154    2.00000
   92     -2.87603    2.00000
   93     -2.81309    2.00000
   94     -2.76959    2.00000
   95     -2.72631    2.00000
   96     -2.62008    2.00000
   97     -2.49758    2.00000
   98     -2.15620    2.00000
   99      1.44605    0.00000
  100      3.63870    0.00000
  101      3.69911    0.00000
  102      3.78713    0.00000
  103      4.03944    0.00000
  104      4.39053    0.00000
  105      4.91339    0.00000
  106      5.54370    0.00000
  107      5.56638    0.00000
  108      5.72457    0.00000
  109      6.00836    0.00000
  110      6.06896    0.00000
  111      6.19802    0.00000
  112      6.30976    0.00000
  113      6.41638    0.00000
  114      6.46758    0.00000
  115      6.64661    0.00000
  116      6.75949    0.00000
  117      7.12109    0.00000
  118      7.29634    0.00000
  119      7.37350    0.00000
  120      7.86308    0.00000
  121      7.92643    0.00000
  122      8.08829    0.00000

Gap: 3.602 eV
Transition (v -> c):
  (s=0, k=0, n=98, [0.00, 0.00, 0.00]) -> (s=0, k=0, n=99, [0.00, 0.00, 0.00])

Forces in eV/Ang:
  0 O     0.31656   -0.71730   -0.62735
  1 O    -1.36037    1.42507   -2.34362
  2 O    -0.52982   -1.25167    1.02313
  3 O    -0.02292   -0.45621    1.99715
  4 O    -0.25777    0.00327   -0.00605
  5 O    -2.76101    0.93861   -0.38878
  6 O    -0.32015    0.34546    1.62565
  7 O    -0.77239    0.23876    0.67652
  8 O     0.67757    0.21279   -0.81793
  9 O    -1.71284   -1.37340    1.16957
 10 O    19.01507    2.40223   16.04523
 11 O     0.35111   -1.07860    0.83869
 12 O    -1.57237   -0.38381    0.30345
 13 O     1.46466   -0.40529    0.04489
 14 O     0.36580   -0.35417    0.82667
 15 O    -1.36992   -0.70081   -0.96420
 16 O   -10.65887    4.34841   -6.26333
 17 O     2.07421   -1.82567    1.66996
 18 O    -0.37967   -0.56902    1.03399
 19 O    -1.36974    0.98160   -0.62228
 20 O     0.33879    0.08970    2.80463
 21 O    -0.26035   -0.08800   -1.11844
 22 O    -1.46360   -0.23689   -1.33412
 23 O    -0.46367   -0.99807   -0.77428
 24 H    -0.72338   -0.29373    0.66779
 25 H     0.20303    1.00102   -0.01288
 26 H     0.40133   -0.70308    0.88923
 27 H     1.26911   -0.08738    1.53781
 28 H    -0.32133    1.72067   -0.25516
 29 H     0.38466   -0.39778   -0.42273
 30 H     0.24047    0.33386   -1.28818
 31 H    -0.73918    0.25787   -0.67419
 32 H     0.12347    0.11072   -0.61254
 33 H     0.36359    0.01448    0.89322
 34 H     0.75566   -0.28251    0.50776
 35 H     1.76137   -0.34059   -0.54082
 36 H     0.33643   -0.22449   -1.46817
 37 H    -0.32677   -0.32092   -0.16386
 38 H     1.04813    0.24226    0.02437
 39 H     0.48378   -0.27096   -0.74498
 40 H    -1.27290   -0.43958    0.82666
 41 H     0.22609   -0.37859    0.13607
 42 H    -0.11550    1.10710   -0.85012
 43 H     1.54053    0.18322   -0.45919
 44 H     1.86338    3.44370   -0.50014
 45 H     1.73542   -1.07940    0.77163
 46 H    -0.29642    0.38021   -0.04363
 47 H    -0.00139    0.39560   -0.53839
 48 H     0.94559   -0.26303   -0.06747
 49 H     0.82146    1.23766   -0.10644
 50 H    -0.67035    0.13293   -0.36672
 51 H    -0.34680    0.19604    0.32806
 52 H    -1.68610   -0.11508    0.09297
 53 H     1.01379    0.66513   -1.24414
 54 H     0.49740    0.77161    0.20592
 55 H     0.58278   -0.56941    0.84481
 56 H   -37.55486   35.91606  -30.57570
 57 H    -0.79679    1.18645   -2.35793
 58 H    -1.42393    1.29274   -0.77855
 59 H    -0.72256   -0.02754   -0.54046
 60 H    -0.10183    0.49963   -0.80718
 61 H     0.14786    0.20985   -0.41126
 62 H     0.15056   -1.67687    0.29230
 63 H     1.28879    0.66823    0.35871
 64 H     0.23237   -0.01587   -1.52975
 65 H    -0.40110   -0.40392   -1.10645
 66 H     0.20029    0.10330    0.30671
 67 H     0.13697   -0.18832    0.18829
 68 H     0.87914    1.35749    0.41428
 69 H     0.29693   -1.16735    0.36704
 70 H     0.41285    0.26581    0.14981
 71 H     0.50052    1.43526    0.83934
 72 Na   26.97955  -46.31933   22.86731

System changes: positions 

Initializing position-dependent things.

Density initialized from wave functions
       .---------------------.  
      /|                     |  
     / |     H               |  
    /  |                   H |  
   /   | H  OH             O |  
  / H OH       OHH    H      |  
 *H   H|      H O HHO        |  
 |     O      H   H  OH      |  
 | H  O| H   OH           H  |  
 |    H|  HHO  H    HH O     |  
 |     O   H      O O  HO    |  
 |     .Ha--H-O-H--H--H------.  
 |    /        H   O      H /   
 |   /H  OH  O     H       /    
 |  /  H     H            /     
 | /             O       /      
 |/  OH         H  H    /       
 *---------------------*        

Positions:
   0 O      2.819221    5.591406    3.145851    ( 0.0000,  0.0000,  0.0000)
   1 O      3.099758    9.485302    3.089560    ( 0.0000,  0.0000,  0.0000)
   2 O      0.555998    5.696998    0.341862    ( 0.0000,  0.0000,  0.0000)
   3 O      3.936442    2.777385    1.804329    ( 0.0000,  0.0000,  0.0000)
   4 O      6.478693    3.280030    2.503006    ( 0.0000,  0.0000,  0.0000)
   5 O      4.455430    6.050863    5.298243    ( 0.0000,  0.0000,  0.0000)
   6 O      2.310295    9.375579    5.599971    ( 0.0000,  0.0000,  0.0000)
   7 O      5.800104    7.626031    1.605638    ( 0.0000,  0.0000,  0.0000)
   8 O      6.338076    1.347584    9.702043    ( 0.0000,  0.0000,  0.0000)
   9 O      2.581454    7.108233    7.055849    ( 0.0000,  0.0000,  0.0000)
  10 O      1.628651    9.167916    0.832384    ( 0.0000,  0.0000,  0.0000)
  11 O      1.502891    3.972106    6.005391    ( 0.0000,  0.0000,  0.0000)
  12 O      5.088503    2.973822   -0.969650    ( 0.0000,  0.0000,  0.0000)
  13 O      0.274463    5.873399    4.463557    ( 0.0000,  0.0000,  0.0000)
  14 O      1.295997    2.681948   -0.398373    ( 0.0000,  0.0000,  0.0000)
  15 O      5.265833    8.403827    4.141418    ( 0.0000,  0.0000,  0.0000)
  16 O     -0.778177    0.441661   -0.782974    ( 0.0000,  0.0000,  0.0000)
  17 O      6.539977    4.846976    6.315270    ( 0.0000,  0.0000,  0.0000)
  18 O      3.971849    2.639065    5.721217    ( 0.0000,  0.0000,  0.0000)
  19 O     -0.343905   10.603604    5.996781    ( 0.0000,  0.0000,  0.0000)
  20 O     -0.244894    6.811642   -1.934112    ( 0.0000,  0.0000,  0.0000)
  21 O      3.208166    7.270974    0.766247    ( 0.0000,  0.0000,  0.0000)
  22 O      7.730426    5.626839    2.429046    ( 0.0000,  0.0000,  0.0000)
  23 O     -2.694413   10.717901    4.758271    ( 0.0000,  0.0000,  0.0000)
  24 H      1.965951    6.023744    3.405110    ( 0.0000,  0.0000,  0.0000)
  25 H      2.623596    4.597761    3.083139    ( 0.0000,  0.0000,  0.0000)
  26 H      3.333525   10.384555    2.567018    ( 0.0000,  0.0000,  0.0000)
  27 H      2.379494    9.229208    2.358072    ( 0.0000,  0.0000,  0.0000)
  28 H      0.818371    4.686415    0.355863    ( 0.0000,  0.0000,  0.0000)
  29 H     -0.143930    5.742524    1.148426    ( 0.0000,  0.0000,  0.0000)
  30 H      4.088697    3.201441    0.949532    ( 0.0000,  0.0000,  0.0000)
  31 H      4.843725    2.937087    2.289443    ( 0.0000,  0.0000,  0.0000)
  32 H      6.573683    2.476116    1.893086    ( 0.0000,  0.0000,  0.0000)
  33 H      6.390348    2.781919    3.381302    ( 0.0000,  0.0000,  0.0000)
  34 H      3.883285    5.841088    4.451004    ( 0.0000,  0.0000,  0.0000)
  35 H      3.618608    6.304936    5.911688    ( 0.0000,  0.0000,  0.0000)
  36 H      2.471373    9.614472    4.660415    ( 0.0000,  0.0000,  0.0000)
  37 H      1.577018   10.000247    5.849253    ( 0.0000,  0.0000,  0.0000)
  38 H      5.533783    7.826980    2.583454    ( 0.0000,  0.0000,  0.0000)
  39 H      4.845364    7.420121    1.334887    ( 0.0000,  0.0000,  0.0000)
  40 H      7.141525    1.203546    9.047991    ( 0.0000,  0.0000,  0.0000)
  41 H      6.005103    0.429284    9.939571    ( 0.0000,  0.0000,  0.0000)
  42 H      2.679521    7.985662    6.634764    ( 0.0000,  0.0000,  0.0000)
  43 H      1.528399    6.936849    7.061860    ( 0.0000,  0.0000,  0.0000)
  44 H      1.841947   10.033081    0.547231    ( 0.0000,  0.0000,  0.0000)
  45 H      2.347611    8.503740    0.577644    ( 0.0000,  0.0000,  0.0000)
  46 H      2.408634    3.625266    5.692092    ( 0.0000,  0.0000,  0.0000)
  47 H      1.052328    4.587819    5.359518    ( 0.0000,  0.0000,  0.0000)
  48 H      5.676671    3.673920   -1.379479    ( 0.0000,  0.0000,  0.0000)
  49 H      5.428403    2.102373   -0.557892    ( 0.0000,  0.0000,  0.0000)
  50 H      0.102311    6.383826    5.293749    ( 0.0000,  0.0000,  0.0000)
  51 H     -0.466064    5.810776    3.768252    ( 0.0000,  0.0000,  0.0000)
  52 H      0.355602    2.638151   -0.603885    ( 0.0000,  0.0000,  0.0000)
  53 H      1.502174    3.185517   -1.220995    ( 0.0000,  0.0000,  0.0000)
  54 H      4.891889    7.502193    4.543794    ( 0.0000,  0.0000,  0.0000)
  55 H      4.447913    8.826624    3.630666    ( 0.0000,  0.0000,  0.0000)
  56 H      0.160527    0.363382   -0.291413    ( 0.0000,  0.0000,  0.0000)
  57 H     -0.582964    1.001879   -1.572896    ( 0.0000,  0.0000,  0.0000)
  58 H      5.847371    5.399686    5.953595    ( 0.0000,  0.0000,  0.0000)
  59 H      7.259423    5.411050    6.724438    ( 0.0000,  0.0000,  0.0000)
  60 H      4.372417    2.695499    6.727026    ( 0.0000,  0.0000,  0.0000)
  61 H      3.452944    1.776801    5.846672    ( 0.0000,  0.0000,  0.0000)
  62 H     -1.283870   10.927693    5.581395    ( 0.0000,  0.0000,  0.0000)
  63 H      0.060046   11.481388    5.801907    ( 0.0000,  0.0000,  0.0000)
  64 H     -0.120147    6.295702   -0.966730    ( 0.0000,  0.0000,  0.0000)
  65 H     -0.574295    7.692170   -1.543484    ( 0.0000,  0.0000,  0.0000)
  66 H      3.068562    6.955917   -0.207920    ( 0.0000,  0.0000,  0.0000)
  67 H      2.740039    6.596046    1.335893    ( 0.0000,  0.0000,  0.0000)
  68 H      7.149623    4.686086    2.342795    ( 0.0000,  0.0000,  0.0000)
  69 H      7.090567    6.401379    2.141901    ( 0.0000,  0.0000,  0.0000)
  70 H     -3.625754   11.033682    5.092502    ( 0.0000,  0.0000,  0.0000)
  71 H     -2.936351    9.709408    4.452364    ( 0.0000,  0.0000,  0.0000)
  72 Na     0.500011   -0.000018    0.000018    ( 0.0000,  0.0000,  0.0000)

Unit cell:
           periodic     x           y           z      points  spacing
  1. axis:    yes    8.956370    0.000000    0.000000    44     0.2036
  2. axis:    yes    0.000000    8.956370    0.000000    44     0.2036
  3. axis:    yes    0.000000    0.000000    8.956370    44     0.2036

  Lengths:   8.956370   8.956370   8.956370
  Angles:   90.000000  90.000000  90.000000

Effective grid spacing dv^(1/3) = 0.2036

                     log10-error:    total        iterations:
           time      wfs    density  energy       fermi  poisson
iter:   1  08:20:21          +inf  -302.877905    1      1      
iter:   2  08:20:22         -4.24  -302.877902    0      1      
iter:   3  08:20:24         -4.28  -302.877896    1      1      

Converged after 3 iterations.

Dipole moment: (7.278038, -18.829541, 5.797277) |e|*Ang

Energy contributions relative to reference atoms: (reference = -53998.593513)

Kinetic:       +382.633762
Potential:     -382.611362
External:        +0.000000
XC:            -312.380651
Entropy (-ST):   -0.000000
Local:           +9.480355
--------------------------
Free energy:   -302.877896
Extrapolated:  -302.877896

Fermi level: -0.35270

 Band  Eigenvalues  Occupancy
    0    -37.43296    2.00000
    1    -33.13809    2.00000
    2    -32.52332    2.00000
    3    -23.91654    2.00000
    4    -22.91496    2.00000
    5    -22.21064    2.00000
    6    -22.01447    2.00000
    7    -21.75001    2.00000
    8    -21.65396    2.00000
    9    -21.45557    2.00000
   10    -21.40318    2.00000
   11    -21.32389    2.00000
   12    -21.12592    2.00000
   13    -21.03101    2.00000
   14    -20.97541    2.00000
   15    -20.88182    2.00000
   16    -20.81779    2.00000
   17    -20.66027    2.00000
   18    -20.54379    2.00000
   19    -20.49581    2.00000
   20    -20.36336    2.00000
   21    -20.30974    2.00000
   22    -20.13414    2.00000
   23    -19.93572    2.00000
   24    -19.85023    2.00000
   25    -19.78164    2.00000
   26    -19.39174    2.00000
   27    -12.53561    2.00000
   28    -10.00683    2.00000
   29     -9.96300    2.00000
   30     -9.82930    2.00000
   31     -9.59568    2.00000
   32     -9.52321    2.00000
   33     -9.43161    2.00000
   34     -9.29108    2.00000
   35     -9.19764    2.00000
   36     -9.17906    2.00000
   37     -9.09302    2.00000
   38     -8.96649    2.00000
   39     -8.92603    2.00000
   40     -8.74957    2.00000
   41     -8.69663    2.00000
   42     -8.64205    2.00000
   43     -8.50530    2.00000
   44     -8.44290    2.00000
   45     -8.42069    2.00000
   46     -8.15150    2.00000
   47     -8.07431    2.00000
   48     -7.96769    2.00000
   49     -7.88758    2.00000
   50     -7.81089    2.00000
   51     -7.63209    2.00000
   52     -7.48454    2.00000
   53     -7.45742    2.00000
   54     -7.18569    2.00000
   55     -6.92045    2.00000
   56     -6.74152    2.00000
   57     -6.57333    2.00000
   58     -6.54291    2.00000
   59     -6.32309    2.00000
   60     -6.13213    2.00000
   61     -6.04596    2.00000
   62     -5.92505    2.00000
   63     -5.81872    2.00000
   64     -5.69989    2.00000
   65     -5.56894    2.00000
   66     -5.47471    2.00000
   67     -5.46570    2.00000
   68     -5.29020    2.00000
   69     -5.07569    2.00000
   70     -4.95904    2.00000
   71     -4.88356    2.00000
   72     -4.79053    2.00000
   73     -4.61853    2.00000
   74     -4.51436    2.00000
   75     -4.37867    2.00000
   76     -4.31104    2.00000
   77     -4.16694    2.00000
   78     -4.03633    2.00000
   79     -3.96226    2.00000
   80     -3.82649    2.00000
   81     -3.71376    2.00000
   82     -3.59227    2.00000
   83     -3.55183    2.00000
   84     -3.50937    2.00000
   85     -3.44832    2.00000
   86     -3.32502    2.00000
   87     -3.19210    2.00000
   88     -3.13757    2.00000
   89     -3.09704    2.00000
   90     -2.96564    2.00000
   91     -2.92216    2.00000
   92     -2.87632    2.00000
   93     -2.81328    2.00000
   94     -2.77017    2.00000
   95     -2.72621    2.00000
   96     -2.61982    2.00000
   97     -2.49730    2.00000
   98     -2.15679    2.00000
   99      1.44637    0.00000
  100      3.63917    0.00000
  101      3.69918    0.00000
  102      3.78726    0.00000
  103      4.03958    0.00000
  104      4.39083    0.00000
  105      4.91351    0.00000
  106      5.54424    0.00000
  107      5.56683    0.00000
  108      5.72482    0.00000
  109      6.00869    0.00000
  110      6.06939    0.00000
  111      6.19781    0.00000
  112      6.30961    0.00000
  113      6.41665    0.00000
  114      6.46770    0.00000
  115      6.64698    0.00000
  116      6.75966    0.00000
  117      7.12114    0.00000
  118      7.29669    0.00000
  119      7.37391    0.00000
  120      7.86379    0.00000
  121      7.92740    0.00000
  122      8.08891    0.00000

Gap: 3.603 eV
Transition (v -> c):
  (s=0, k=0, n=98, [0.00, 0.00, 0.00]) -> (s=0, k=0, n=99, [0.00, 0.00, 0.00])

Forces in eV/Ang:
  0 O     0.31617   -0.71221   -0.62647
  1 O    -1.35576    1.43000   -2.33851
  2 O    -0.52579   -1.24840    1.02013
  3 O    -0.02617   -0.45605    1.99188
  4 O    -0.25791    0.00505    0.00132
  5 O    -2.75952    0.94058   -0.38457
  6 O    -0.31742    0.34573    1.62069
  7 O    -0.76877    0.24017    0.67758
  8 O     0.66966    0.21771   -0.81388
  9 O    -1.71609   -1.37738    1.17111
 10 O    19.00551    2.39611   16.04629
 11 O     0.34669   -1.08042    0.84662
 12 O    -1.57199   -0.39549    0.30961
 13 O     1.47002   -0.40670    0.04553
 14 O     0.36715   -0.35305    0.82469
 15 O    -1.36939   -0.70142   -0.96331
 16 O   -10.65544    4.34687   -6.25809
 17 O     2.08088   -1.83185    1.67355
 18 O    -0.38266   -0.57648    1.03825
 19 O    -1.36609    0.98286   -0.62067
 20 O     0.33637    0.09325    2.80090
 21 O    -0.26050   -0.08876   -1.11919
 22 O    -1.46411   -0.23559   -1.33453
 23 O    -0.46490   -0.99624   -0.77336
 24 H    -0.72340   -0.29170    0.66771
 25 H     0.20344    0.99430   -0.01366
 26 H     0.40258   -0.70355    0.89035
 27 H     1.26410   -0.09118    1.53225
 28 H    -0.32257    1.71954   -0.25399
 29 H     0.38270   -0.40133   -0.42097
 30 H     0.23903    0.33293   -1.28722
 31 H    -0.73513    0.25836   -0.66913
 32 H     0.12518    0.10623   -0.61872
 33 H     0.36233    0.01792    0.89269
 34 H     0.75402   -0.28479    0.50298
 35 H     1.76207   -0.34010   -0.54055
 36 H     0.33691   -0.22600   -1.46559
 37 H    -0.32998   -0.31933   -0.16106
 38 H     1.04583    0.24174    0.02320
 39 H     0.48194   -0.27121   -0.74391
 40 H    -1.26235   -0.44211    0.82064
 41 H     0.22416   -0.38268    0.13647
 42 H    -0.11691    1.10854   -0.85074
 43 H     1.54483    0.18577   -0.46063
 44 H     1.86561    3.45327   -0.50324
 45 H     1.73837   -1.08204    0.77113
 46 H    -0.28587    0.37567   -0.04612
 47 H    -0.00797    0.40226   -0.54473
 48 H     0.94775   -0.26019   -0.07006
 49 H     0.81817    1.24491   -0.10910
 50 H    -0.67123    0.13490   -0.36379
 51 H    -0.35134    0.19546    0.32469
 52 H    -1.68840   -0.11557    0.09338
 53 H     1.01505    0.66477   -1.24253
 54 H     0.49647    0.77446    0.20444
 55 H     0.58228   -0.57223    0.84478
 56 H   -37.56153   35.91316  -30.54453
 57 H    -0.79607    1.18719   -2.35972
 58 H    -1.43305    1.29887   -0.78314
 59 H    -0.71978   -0.02727   -0.53958
 60 H    -0.10132    0.50148   -0.81013
 61 H     0.15154    0.21563   -0.41288
 62 H     0.14990   -1.67516    0.29121
 63 H     1.28613    0.66616    0.35836
 64 H     0.23331   -0.01865   -1.52560
 65 H    -0.39973   -0.40374   -1.10774
 66 H     0.20042    0.10376    0.30774
 67 H     0.13707   -0.18839    0.18831
 68 H     0.87845    1.35854    0.41570
 69 H     0.29746   -1.16851    0.36645
 70 H     0.41378    0.26580    0.14881
 71 H     0.50150    1.43346    0.83879
 72 Na   26.98679  -46.31566   22.83530

System changes: positions 

Initializing position-dependent things.

Density initialized from wave functions
       .---------------------.  
      /|                     |  
     / |     H               |  
    /  |                   H |  
   /   | H  OH             O |  
  / H OH       OHH    H      |  
 *H   H|      H O HHO        |  
 |     O      H   H  OH      |  
 | H  O| H   OH           H  |  
 |    H|  HHO  H    HH O     |  
 |     O   H      O O  HO    |  
 |     .Ha--H-O-H--H--H------.  
 |    /        H   O      H /   
 |   /H  OH  O     H       /    
 |  /  H     H            /     
 | /             O       /      
 |/  OH         H  H    /       
 *---------------------*        

Positions:
   0 O      2.819177    5.591329    3.145809    ( 0.0000,  0.0000,  0.0000)
   1 O      3.099717    9.485259    3.089504    ( 0.0000,  0.0000,  0.0000)
   2 O      0.555954    5.697001    0.341873    ( 0.0000,  0.0000,  0.0000)
   3 O      3.936444    2.777394    1.804389    ( 0.0000,  0.0000,  0.0000)
   4 O      6.478614    3.280003    2.502988    ( 0.0000,  0.0000,  0.0000)
   5 O      4.455405    6.050835    5.298282    ( 0.0000,  0.0000,  0.0000)
   6 O      2.310301    9.375537    5.599940    ( 0.0000,  0.0000,  0.0000)
   7 O      5.800064    7.626054    1.605631    ( 0.0000,  0.0000,  0.0000)
   8 O      6.338092    1.347601    9.702036    ( 0.0000,  0.0000,  0.0000)
   9 O      2.581511    7.108295    7.055928    ( 0.0000,  0.0000,  0.0000)
  10 O      1.628675    9.167942    0.832435    ( 0.0000,  0.0000,  0.0000)
  11 O      1.502946    3.972076    6.005416    ( 0.0000,  0.0000,  0.0000)
  12 O      5.088481    2.973762   -0.969666    ( 0.0000,  0.0000,  0.0000)
  13 O      0.274381    5.873420    4.463519    ( 0.0000,  0.0000,  0.0000)
  14 O      1.296058    2.681903   -0.398412    ( 0.0000,  0.0000,  0.0000)
  15 O      5.265892    8.403796    4.141436    ( 0.0000,  0.0000,  0.0000)
  16 O     -0.778196    0.441658   -0.783027    ( 0.0000,  0.0000,  0.0000)
  17 O      6.540019    4.846984    6.315232    ( 0.0000,  0.0000,  0.0000)
  18 O      3.971939    2.639124    5.721194    ( 0.0000,  0.0000,  0.0000)
  19 O     -0.343960   10.603599    5.996681    ( 0.0000,  0.0000,  0.0000)
  20 O     -0.244896    6.811619   -1.933990    ( 0.0000,  0.0000,  0.0000)
[...]
   7 O      5.794196    7.629484    1.605009    ( 0.0000,  0.0000,  0.0000)
   8 O      6.340355    1.350065    9.700684    ( 0.0000,  0.0000,  0.0000)
   9 O      2.588261    7.115910    7.067428    ( 0.0000,  0.0000,  0.0000)
  10 O      1.642972    9.172899    0.848712    ( 0.0000,  0.0000,  0.0000)
  11 O      1.510533    3.967243    6.009554    ( 0.0000,  0.0000,  0.0000)
  12 O      5.084654    2.965036   -0.971528    ( 0.0000,  0.0000,  0.0000)
  13 O      0.264082    5.876125    4.458340    ( 0.0000,  0.0000,  0.0000)
  14 O      1.304717    2.675599   -0.403346    ( 0.0000,  0.0000,  0.0000)
  15 O      5.273220    8.399110    4.143465    ( 0.0000,  0.0000,  0.0000)
  16 O     -0.787730    0.443598   -0.794321    ( 0.0000,  0.0000,  0.0000)
  17 O      6.547162    4.847023    6.310987    ( 0.0000,  0.0000,  0.0000)
  18 O      3.984105    2.646859    5.718709    ( 0.0000,  0.0000,  0.0000)
  19 O     -0.352153   10.603605    5.982620    ( 0.0000,  0.0000,  0.0000)
  20 O     -0.245050    6.808643   -1.915607    ( 0.0000,  0.0000,  0.0000)
  21 O      3.212728    7.273341    0.766785    ( 0.0000,  0.0000,  0.0000)
  22 O      7.730679    5.639026    2.428219    ( 0.0000,  0.0000,  0.0000)
  23 O     -2.702212   10.715936    4.750825    ( 0.0000,  0.0000,  0.0000)
  24 H      1.944812    5.986937    3.407352    ( 0.0000,  0.0000,  0.0000)
  25 H      2.603610    4.619406    3.086108    ( 0.0000,  0.0000,  0.0000)
  26 H      3.307591   10.385094    2.563436    ( 0.0000,  0.0000,  0.0000)
  27 H      2.386123    9.252769    2.409376    ( 0.0000,  0.0000,  0.0000)
  28 H      0.837089    4.717438    0.373213    ( 0.0000,  0.0000,  0.0000)
  29 H     -0.105161    5.817125    1.142851    ( 0.0000,  0.0000,  0.0000)
  30 H      4.096090    3.197736    0.939403    ( 0.0000,  0.0000,  0.0000)
  31 H      4.836231    2.933465    2.249318    ( 0.0000,  0.0000,  0.0000)
  32 H      6.559671    2.497073    1.906467    ( 0.0000,  0.0000,  0.0000)
  33 H      6.431580    2.715483    3.374183    ( 0.0000,  0.0000,  0.0000)
  34 H      3.887473    5.875614    4.479761    ( 0.0000,  0.0000,  0.0000)
  35 H      3.627413    6.293416    5.914780    ( 0.0000,  0.0000,  0.0000)
  36 H      2.480194    9.605431    4.634348    ( 0.0000,  0.0000,  0.0000)
  37 H      1.612274   10.032715    5.810105    ( 0.0000,  0.0000,  0.0000)
  38 H      5.595789    7.844022    2.599801    ( 0.0000,  0.0000,  0.0000)
  39 H      4.841366    7.451178    1.333458    ( 0.0000,  0.0000,  0.0000)
  40 H      7.053002    1.241212    9.036576    ( 0.0000,  0.0000,  0.0000)
  41 H      6.037779    0.434983    9.951802    ( 0.0000,  0.0000,  0.0000)
  42 H      2.711167    7.993063    6.635002    ( 0.0000,  0.0000,  0.0000)
  43 H      1.529776    6.933233    7.097506    ( 0.0000,  0.0000,  0.0000)
  44 H      1.854746   10.038647    0.524447    ( 0.0000,  0.0000,  0.0000)
  45 H      2.337290    8.508986    0.559832    ( 0.0000,  0.0000,  0.0000)
  46 H      2.375030    3.651288    5.690876    ( 0.0000,  0.0000,  0.0000)
  47 H      1.104313    4.573335    5.368413    ( 0.0000,  0.0000,  0.0000)
  48 H      5.672869    3.680222   -1.323756    ( 0.0000,  0.0000,  0.0000)
  49 H      5.460691    2.092607   -0.524376    ( 0.0000,  0.0000,  0.0000)
  50 H      0.106896    6.389272    5.274415    ( 0.0000,  0.0000,  0.0000)
  51 H     -0.455944    5.840631    3.770150    ( 0.0000,  0.0000,  0.0000)
  52 H      0.359957    2.645906   -0.644550    ( 0.0000,  0.0000,  0.0000)
  53 H      1.523968    3.162216   -1.253224    ( 0.0000,  0.0000,  0.0000)
  54 H      4.920643    7.484635    4.553073    ( 0.0000,  0.0000,  0.0000)
  55 H      4.474029    8.859547    3.658468    ( 0.0000,  0.0000,  0.0000)
  56 H     -0.154138    0.663369   -0.485342    ( 0.0000,  0.0000,  0.0000)
  57 H     -0.568860    1.010772   -1.590341    ( 0.0000,  0.0000,  0.0000)
  58 H      5.864392    5.431191    5.997963    ( 0.0000,  0.0000,  0.0000)
  59 H      7.232480    5.408535    6.748960    ( 0.0000,  0.0000,  0.0000)
  60 H      4.365014    2.660303    6.750535    ( 0.0000,  0.0000,  0.0000)
  61 H      3.447967    1.769091    5.837815    ( 0.0000,  0.0000,  0.0000)
  62 H     -1.284995   10.911126    5.598746    ( 0.0000,  0.0000,  0.0000)
  63 H      0.104238   11.473879    5.791964    ( 0.0000,  0.0000,  0.0000)
  64 H     -0.152721    6.306632   -1.010545    ( 0.0000,  0.0000,  0.0000)
  65 H     -0.627264    7.665597   -1.521531    ( 0.0000,  0.0000,  0.0000)
  66 H      3.078666    6.951821   -0.204770    ( 0.0000,  0.0000,  0.0000)
  67 H      2.747987    6.598682    1.341357    ( 0.0000,  0.0000,  0.0000)
  68 H      7.185200    4.711248    2.296388    ( 0.0000,  0.0000,  0.0000)
  69 H      7.083628    6.406157    2.169032    ( 0.0000,  0.0000,  0.0000)
  70 H     -3.628959   11.049092    5.105414    ( 0.0000,  0.0000,  0.0000)
  71 H     -2.958244    9.732261    4.467532    ( 0.0000,  0.0000,  0.0000)
  72 Na     0.509171   -0.017416    0.007675    ( 0.0000,  0.0000,  0.0000)

Unit cell:
           periodic     x           y           z      points  spacing
  1. axis:    yes    8.956370    0.000000    0.000000    44     0.2036
  2. axis:    yes    0.000000    8.956370    0.000000    44     0.2036
  3. axis:    yes    0.000000    0.000000    8.956370    44     0.2036

  Lengths:   8.956370   8.956370   8.956370
  Angles:   90.000000  90.000000  90.000000

Effective grid spacing dv^(1/3) = 0.2036

                     log10-error:    total        iterations:
           time      wfs    density  energy       fermi  poisson
iter:   1  08:40:28          +inf  -318.453903    0      1      
iter:   2  08:40:29         -3.92  -318.453889    0      1      
iter:   3  08:40:31         -3.96  -318.453830    0      1      
iter:   4  08:40:32         -4.26  -318.453825    0      1      

Converged after 4 iterations.

Dipole moment: (11.939774, -18.387019, 5.113700) |e|*Ang

Energy contributions relative to reference atoms: (reference = -53998.593513)

Kinetic:       +383.833996
Potential:     -395.402710
External:        +0.000000
XC:            -316.136062
Entropy (-ST):   -0.000000
Local:           +9.250951
--------------------------
Free energy:   -318.453825
Extrapolated:  -318.453825

Fermi level: -0.31817

 Band  Eigenvalues  Occupancy
    0    -30.31643    2.00000
    1    -26.65727    2.00000
    2    -25.55584    2.00000
    3    -24.33827    2.00000
    4    -22.83511    2.00000
    5    -22.10033    2.00000
    6    -22.00469    2.00000
    7    -21.94470    2.00000
    8    -21.72242    2.00000
    9    -21.53925    2.00000
   10    -21.46426    2.00000
   11    -21.35129    2.00000
   12    -21.23442    2.00000
   13    -21.14157    2.00000
   14    -21.11135    2.00000
   15    -21.03492    2.00000
   16    -21.00465    2.00000
   17    -20.91370    2.00000
   18    -20.82464    2.00000
   19    -20.62915    2.00000
   20    -20.52467    2.00000
   21    -20.48368    2.00000
   22    -20.26092    2.00000
   23    -20.10449    2.00000
   24    -19.99399    2.00000
   25    -19.93448    2.00000
   26    -19.47198    2.00000
   27    -11.60556    2.00000
   28    -11.30339    2.00000
   29    -10.34705    2.00000
   30    -10.01352    2.00000
   31     -9.71893    2.00000
   32     -9.68295    2.00000
   33     -9.57248    2.00000
   34     -9.49215    2.00000
   35     -9.39685    2.00000
   36     -9.26815    2.00000
   37     -9.25230    2.00000
   38     -9.13191    2.00000
   39     -9.04594    2.00000
   40     -9.02516    2.00000
   41     -8.88782    2.00000
   42     -8.76738    2.00000
   43     -8.63685    2.00000
   44     -8.55092    2.00000
   45     -8.51511    2.00000
   46     -8.38744    2.00000
   47     -8.16092    2.00000
   48     -8.11222    2.00000
   49     -7.97477    2.00000
   50     -7.87361    2.00000
   51     -7.73491    2.00000
   52     -7.64132    2.00000
   53     -7.46474    2.00000
   54     -7.21060    2.00000
   55     -6.99774    2.00000
   56     -6.92648    2.00000
   57     -6.71867    2.00000
   58     -6.64018    2.00000
   59     -6.38901    2.00000
   60     -6.24611    2.00000
   61     -6.14759    2.00000
   62     -5.97434    2.00000
   63     -5.91555    2.00000
   64     -5.78005    2.00000
   65     -5.59285    2.00000
   66     -5.55629    2.00000
   67     -5.43107    2.00000
   68     -5.28520    2.00000
   69     -5.28351    2.00000
   70     -5.12405    2.00000
   71     -4.94510    2.00000
   72     -4.87706    2.00000
   73     -4.59949    2.00000
   74     -4.56202    2.00000
   75     -4.34011    2.00000
   76     -4.29372    2.00000
   77     -4.11914    2.00000
   78     -3.96442    2.00000
   79     -3.88673    2.00000
   80     -3.84777    2.00000
   81     -3.80358    2.00000
   82     -3.79131    2.00000
   83     -3.70494    2.00000
   84     -3.56599    2.00000
   85     -3.53155    2.00000
   86     -3.39908    2.00000
   87     -3.33355    2.00000
   88     -3.16319    2.00000
   89     -3.13419    2.00000
   90     -3.06980    2.00000
   91     -3.00707    2.00000
   92     -2.95515    2.00000
   93     -2.92162    2.00000
   94     -2.83726    2.00000
   95     -2.77332    2.00000
   96     -2.72468    2.00000
   97     -2.56727    2.00000
   98     -2.28196    2.00000
   99      1.63662    0.00000
  100      3.62099    0.00000
  101      3.87112    0.00000
  102      3.96243    0.00000
  103      4.14374    0.00000
  104      4.47824    0.00000
  105      4.87228    0.00000
  106      5.60826    0.00000
  107      5.68935    0.00000
  108      5.85865    0.00000
  109      6.03218    0.00000
  110      6.18262    0.00000
  111      6.24453    0.00000
  112      6.34512    0.00000
  113      6.45444    0.00000
  114      6.56572    0.00000
  115      6.64823    0.00000
  116      6.81002    0.00000
  117      7.08151    0.00000
  118      7.29813    0.00000
  119      7.47195    0.00000
  120      7.92983    0.00000
  121      8.03385    0.00000
  122      8.16774    0.00000

Gap: 3.919 eV
Transition (v -> c):
  (s=0, k=0, n=98, [0.00, 0.00, 0.00]) -> (s=0, k=0, n=99, [0.00, 0.00, 0.00])

Forces in eV/Ang:
  0 O     0.12099    0.47387   -0.35924
  1 O    -0.07179    2.02947   -0.85141
  2 O    -0.09779   -0.45657    0.45392
  3 O    -0.57214   -0.18669    0.64321
  4 O    -0.19491    0.06932    1.17401
  5 O    -2.02053    1.09067    0.23482
  6 O     0.04078    0.51632    0.59683
  7 O    -0.11919    0.46875    0.76466
  8 O    -0.72779    0.71267    0.16466
  9 O    -1.70300   -1.30948    1.02301
 10 O    18.73523    3.59025   15.64234
 11 O    -0.65996   -1.16564    1.83894
 12 O    -1.32377   -1.45440    0.88596
 13 O     2.11905   -0.66622    0.14537
 14 O    -0.12295    0.01674   -0.11805
 15 O    -0.96158   -0.77193   -0.68233
 16 O   -30.95812   -3.83622  -16.68305
 17 O     1.85959   -2.02321    1.49383
 18 O    -0.68436   -1.35584    1.47529
 19 O    -0.58490    1.12711   -0.15061
 20 O    -0.20209    0.89696    1.60242
 21 O    -0.11860   -0.38768   -1.04010
 22 O    -1.24924   -0.14024   -1.23659
 23 O    -0.39896   -0.48377   -0.45151
 24 H    -0.49326   -0.09779    0.56528
 25 H     0.18438   -0.29522   -0.15427
 26 H     0.55209   -0.65131    0.90662
 27 H    -0.12424   -0.74940   -0.00279
 28 H    -0.35739    1.10477   -0.05005
 29 H     0.12420   -0.74418   -0.10481
 30 H    -0.05206   -0.03652   -0.63947
 31 H     0.03228    0.33235    0.06611
 32 H     0.30944   -0.46123   -1.28473
 33 H     0.17152    0.61005    0.47832
 34 H     0.33353   -0.59344   -0.35813
 35 H     1.47932   -0.17645   -0.25061
 36 H     0.34569   -0.52575   -0.78785
 37 H    -0.55680   -0.20595    0.11123
 38 H     0.62834    0.13610   -0.22354
 39 H     0.11178   -0.29613   -0.56046
 40 H     0.26742   -0.56542   -0.23174
 41 H    -0.03007   -0.86374    0.23448
 42 H    -0.38722    0.73444   -0.62142
 43 H     1.86852    0.47221   -0.54981
 44 H     1.45058    2.40356   -0.33564
 45 H     1.52372   -0.86714    0.76951
 46 H     1.41644   -0.33473   -0.47740
 47 H    -0.74826    1.15038   -1.14658
 48 H     1.06026    0.04490   -0.29819
 49 H     0.24836    1.90746   -0.35372
 50 H    -0.74166    0.41124    0.07758
 51 H    -0.90127    0.09218   -0.16152
 52 H    -1.11753    0.08294    0.28127
 53 H     0.91083    0.36506   -0.53722
 54 H     0.31405    1.03511    0.03722
 55 H     0.28371   -0.81917    0.68553
 56 H    14.47786   14.81635    6.51499
 57 H    -1.50248    1.10137   -3.35500
 58 H    -1.75493    1.31321   -0.91141
 59 H    -0.13081    0.14185   -0.25588
 60 H    -0.02915    0.73523   -1.14144
 61 H     0.50993    0.76154   -0.57684
 62 H    -0.15375   -1.25198   -0.00284
 63 H     0.75413    0.14051    0.39456
 64 H     0.45649   -0.59046   -0.39215
 65 H    -0.05400   -0.61502   -1.18189
 66 H     0.16586    0.14643    0.37049
 67 H     0.17443   -0.11020    0.12083
 68 H     0.67176    1.27249    0.57816
 69 H     0.22368   -1.06694    0.20021
 70 H     0.42170    0.29594    0.03761
 71 H     0.52766    0.86589    0.64005
 72 Na   -3.26148  -17.19396   -2.79442

System changes: positions 

Initializing position-dependent things.

Density initialized from wave functions
       .---------------------.  
      /|                     |  
     / |     H               |  
    /  |     H             H |  
   /   | H  O              O |  
  / H OH       OHH    H      |  
 *    H|      H O HHO  H     |  
 |     O      H   H  OH      |  
 | H  O| H   OH           H  |  
 |    H|  HHO  H    HH O     |  
 |     O  H       O O  HO    |  
 |     .Ha--H-O-H--H--H------.  
 |    /        H   O       H/   
 |   /H  OH  O     H       /    
 |  /  H     H            /     
 | /            HO       /      
 |/  OH            H    /       
 *---------------------*        

Positions:
   0 O      2.813268    5.580481    3.139619    ( 0.0000,  0.0000,  0.0000)
   1 O      3.093548    9.480197    3.080521    ( 0.0000,  0.0000,  0.0000)
   2 O      0.549723    5.696882    0.343954    ( 0.0000,  0.0000,  0.0000)
   3 O      3.936552    2.778540    1.813619    ( 0.0000,  0.0000,  0.0000)
   4 O      6.467464    3.276345    2.500675    ( 0.0000,  0.0000,  0.0000)
   5 O      4.450356    6.047633    5.303565    ( 0.0000,  0.0000,  0.0000)
   6 O      2.310973    9.369907    5.596458    ( 0.0000,  0.0000,  0.0000)
   7 O      5.794152    7.629510    1.605007    ( 0.0000,  0.0000,  0.0000)
   8 O      6.340371    1.350086    9.700674    ( 0.0000,  0.0000,  0.0000)
   9 O      2.588302    7.115959    7.067516    ( 0.0000,  0.0000,  0.0000)
  10 O      1.643154    9.172947    0.848897    ( 0.0000,  0.0000,  0.0000)
  11 O      1.510587    3.967203    6.009591    ( 0.0000,  0.0000,  0.0000)
  12 O      5.084620    2.964967   -0.971539    ( 0.0000,  0.0000,  0.0000)
  13 O      0.264016    5.876142    4.458303    ( 0.0000,  0.0000,  0.0000)
  14 O      1.304780    2.675553   -0.403380    ( 0.0000,  0.0000,  0.0000)
  15 O      5.273268    8.399073    4.143476    ( 0.0000,  0.0000,  0.0000)
  16 O     -0.787873    0.443622   -0.794444    ( 0.0000,  0.0000,  0.0000)
  17 O      6.547223    4.847015    6.310963    ( 0.0000,  0.0000,  0.0000)
  18 O      3.984190    2.646910    5.718696    ( 0.0000,  0.0000,  0.0000)
  19 O     -0.352216   10.603610    5.982517    ( 0.0000,  0.0000,  0.0000)
  20 O     -0.245051    6.808624   -1.915466    ( 0.0000,  0.0000,  0.0000)
  21 O      3.212760    7.273357    0.766784    ( 0.0000,  0.0000,  0.0000)
  22 O      7.730675    5.639113    2.428208    ( 0.0000,  0.0000,  0.0000)
  23 O     -2.702270   10.715919    4.750769    ( 0.0000,  0.0000,  0.0000)
  24 H      1.944620    5.986664    3.407409    ( 0.0000,  0.0000,  0.0000)
  25 H      2.603480    4.619573    3.086123    ( 0.0000,  0.0000,  0.0000)
  26 H      3.307439   10.385051    2.563472    ( 0.0000,  0.0000,  0.0000)
  27 H      2.386199    9.252904    2.409783    ( 0.0000,  0.0000,  0.0000)
  28 H      0.837198    4.717753    0.373329    ( 0.0000,  0.0000,  0.0000)
  29 H     -0.104869    5.817616    1.142796    ( 0.0000,  0.0000,  0.0000)
  30 H      4.096147    3.197717    0.939268    ( 0.0000,  0.0000,  0.0000)
  31 H      4.836160    2.933460    2.249018    ( 0.0000,  0.0000,  0.0000)
  32 H      6.559588    2.497204    1.906490    ( 0.0000,  0.0000,  0.0000)
  33 H      6.431892    2.715033    3.374176    ( 0.0000,  0.0000,  0.0000)
  34 H      3.887536    5.875828    4.479965    ( 0.0000,  0.0000,  0.0000)
  35 H      3.627586    6.293317    5.914777    ( 0.0000,  0.0000,  0.0000)
  36 H      2.480281    9.605338    4.634090    ( 0.0000,  0.0000,  0.0000)
  37 H      1.612493   10.032932    5.809826    ( 0.0000,  0.0000,  0.0000)
  38 H      5.596286    7.844156    2.599909    ( 0.0000,  0.0000,  0.0000)
  39 H      4.841353    7.451381    1.333405    ( 0.0000,  0.0000,  0.0000)
  40 H      7.052348    1.241448    9.036509    ( 0.0000,  0.0000,  0.0000)
  41 H      6.038016    0.434974    9.951903    ( 0.0000,  0.0000,  0.0000)
  42 H      2.711375    7.993179    6.634954    ( 0.0000,  0.0000,  0.0000)
  43 H      1.529908    6.933233    7.097726    ( 0.0000,  0.0000,  0.0000)
  44 H      1.854950   10.038893    0.524251    ( 0.0000,  0.0000,  0.0000)
  45 H      2.337326    8.508957    0.559755    ( 0.0000,  0.0000,  0.0000)
  46 H      2.374846    3.651468    5.690845    ( 0.0000,  0.0000,  0.0000)
  47 H      1.104650    4.573294    5.368410    ( 0.0000,  0.0000,  0.0000)
  48 H      5.672913    3.680266   -1.323373    ( 0.0000,  0.0000,  0.0000)
  49 H      5.460952    2.092654   -0.524156    ( 0.0000,  0.0000,  0.0000)
  50 H      0.106880    6.389333    5.274271    ( 0.0000,  0.0000,  0.0000)
  51 H     -0.455921    5.840854    3.770163    ( 0.0000,  0.0000,  0.0000)
  52 H      0.359893    2.645960   -0.644828    ( 0.0000,  0.0000,  0.0000)
  53 H      1.524190    3.162082   -1.253511    ( 0.0000,  0.0000,  0.0000)
  54 H      4.920875    7.484574    4.553145    ( 0.0000,  0.0000,  0.0000)
  55 H      4.474243    8.859732    3.658718    ( 0.0000,  0.0000,  0.0000)
  56 H     -0.157219    0.666891   -0.487442    ( 0.0000,  0.0000,  0.0000)
  57 H     -0.568829    1.010918   -1.590657    ( 0.0000,  0.0000,  0.0000)
  58 H      5.864392    5.431515    5.998218    ( 0.0000,  0.0000,  0.0000)
  59 H      7.232263    5.408522    6.749111    ( 0.0000,  0.0000,  0.0000)
  60 H      4.364957    2.660095    6.750633    ( 0.0000,  0.0000,  0.0000)
  61 H      3.447959    1.769077    5.837716    ( 0.0000,  0.0000,  0.0000)
  62 H     -1.285005   10.910913    5.598877    ( 0.0000,  0.0000,  0.0000)
  63 H      0.104619   11.473848    5.791917    ( 0.0000,  0.0000,  0.0000)
  64 H     -0.152929    6.306685   -1.010915    ( 0.0000,  0.0000,  0.0000)
  65 H     -0.627655    7.665370   -1.521453    ( 0.0000,  0.0000,  0.0000)
  66 H      3.078750    6.951801   -0.204723    ( 0.0000,  0.0000,  0.0000)
  67 H      2.748054    6.598692    1.341406    ( 0.0000,  0.0000,  0.0000)
  68 H      7.185506    4.711519    2.296091    ( 0.0000,  0.0000,  0.0000)
  69 H      7.083596    6.406114    2.169245    ( 0.0000,  0.0000,  0.0000)
  70 H     -3.628953   11.049222    5.105511    ( 0.0000,  0.0000,  0.0000)
  71 H     -2.958365    9.732499    4.467690    ( 0.0000,  0.0000,  0.0000)
  72 Na     0.509264   -0.017625    0.007751    ( 0.0000,  0.0000,  0.0000)

Unit cell:
           periodic     x           y           z      points  spacing
  1. axis:    yes    8.956370    0.000000    0.000000    44     0.2036
  2. axis:    yes    0.000000    8.956370    0.000000    44     0.2036
  3. axis:    yes    0.000000    0.000000    8.956370    44     0.2036

  Lengths:   8.956370   8.956370   8.956370
  Angles:   90.000000  90.000000  90.000000

Effective grid spacing dv^(1/3) = 0.2036

                     log10-error:    total        iterations:
           time      wfs    density  energy       fermi  poisson
iter:   1  08:40:37          +inf  -318.466262    0      1      
