
  ___ ___ ___ _ _ _  
 |   |   |_  | | | | 
 | | | | | . | | | | 
 |__ |  _|___|_____|  19.8.1
 |___|_|             

User:   ericlin@hebbe03-5
Date:   Thu Feb  6 08:53:54 2020
Arch:   x86_64
Pid:    30179
Python: 3.7.2
gpaw:   /apps/Hebbe7/software/MPI/intel/2019.1.144-GCC-8.2.0-2.31.1/impi/2018.4.274/GPAW/19.8.1-Python-3.7.2/lib/python3.7/site-packages/gpaw
_gpaw:  /apps/Hebbe7/software/MPI/intel/2019.1.144-GCC-8.2.0-2.31.1/impi/2018.4.274/GPAW/19.8.1-Python-3.7.2/bin/
        gpaw-python
ase:    /apps/Hebbe7/software/MPI/intel/2019.1.144-GCC-8.2.0-2.31.1/impi/2018.4.274/ASE/3.18.0-Python-3.7.2/lib/python3.7/site-packages/ase (version 3.18.0)
numpy:  /apps/Hebbe7/software/MPI/intel/2019.1.144-GCC-8.2.0-2.31.1/impi/2018.4.274/SciPy-bundle/2019.03/lib/python3.7/site-packages/numpy (version 1.16.2)
scipy:  /apps/Hebbe7/software/MPI/intel/2019.1.144-GCC-8.2.0-2.31.1/impi/2018.4.274/SciPy-bundle/2019.03/lib/python3.7/site-packages/scipy (version 1.2.1)
libxc:  4.3.4
units:  Angstrom and eV
cores:  10

Input parameters:
  basis: dzp
  charge: 1
  mode: lcao
  symmetry: {point_group: False}
  xc: PBE

System changes: positions, numbers, cell, pbc, initial_charges, initial_magmoms 

Initialize ...

O-setup:
  name: Oxygen
  id: 32ecd46bf208036f09c70b0ec9a88b78
  Z: 8
  valence: 6
  core: 2
  charge: 0.0
  file: /apps/Common/Core/GPAW-setups/0.9.20000/O.PBE.gz
  compensation charges: gauss, rc=0.21, lmax=2
  cutoffs: 1.17(filt), 0.83(core),
  valence states:
                energy  radius
    2s(2.00)   -23.961   0.688
    2p(4.00)    -9.029   0.598
    *s           3.251   0.688
    *p          18.182   0.598
    *d           0.000   0.619

  LCAO basis set for O:
    Name: dzp
    File: /apps/Common/Core/GPAW-setups/0.9.20000/O.dzp.basis.gz
    Number of radial functions: 5
    Number of spherical harmonics: 13
      l=0, rc=4.3438 Bohr: 2s-sz confined orbital
      l=1, rc=5.3906 Bohr: 2p-sz confined orbital
      l=0, rc=2.2969 Bohr: 2s-dz split-valence wave
      l=1, rc=2.8906 Bohr: 2p-dz split-valence wave
      l=2, rc=5.3906 Bohr: d-type Gaussian polarization

H-setup:
  name: Hydrogen
  id: d65de229564ff8ea4db303e23b6d1ecf
  Z: 1
  valence: 1
  core: 0
  charge: 0.0
  file: /apps/Common/Core/GPAW-setups/0.9.20000/H.PBE.gz
  compensation charges: gauss, rc=0.15, lmax=2
  cutoffs: 0.85(filt), 0.53(core),
  valence states:
                energy  radius
    1s(1.00)    -6.494   0.476
    *s          20.717   0.476
    *p           0.000   0.476

  LCAO basis set for H:
    Name: dzp
    File: /apps/Common/Core/GPAW-setups/0.9.20000/H.dzp.basis.gz
    Number of radial functions: 3
    Number of spherical harmonics: 5
      l=0, rc=6.4219 Bohr: 1s-sz confined orbital
      l=0, rc=3.6094 Bohr: 1s-dz split-valence wave
      l=1, rc=6.4219 Bohr: p-type Gaussian polarization

Na-setup:
  name: Sodium
  id: d7ecbc49209718622bcbe287195dca2a
  Z: 11
  valence: 7
  core: 4
  charge: 0.0
  file: /apps/Common/Core/GPAW-setups/0.9.20000/Na.PBE.gz
  compensation charges: gauss, rc=0.37, lmax=2
  cutoffs: 2.17(filt), 2.59(core),
  valence states:
                energy  radius
    3s(1.00)    -2.744   1.201
    2p(6.00)   -28.672   1.217
    3p(0.00)    -0.743   1.217
    *s          24.468   1.201
    *d           0.000   1.238

  LCAO basis set for Na:
    Name: dzp
    File: /apps/Common/Core/GPAW-setups/0.9.20000/Na.dzp.basis.gz
    Number of radial functions: 7
    Number of spherical harmonics: 17
      l=0, rc=11.4062 Bohr: 3s-sz confined orbital
      l=1, rc=3.6719 Bohr: 2p-sz confined orbital
      l=1, rc=15.9375 Bohr: 3p-sz confined orbital
      l=0, rc=6.9531 Bohr: 3s-dz split-valence wave
      l=1, rc=2.4219 Bohr: 2p-dz split-valence wave
      l=1, rc=10.0469 Bohr: 3p-dz split-valence wave
      l=1, rc=11.4062 Bohr: p-type Gaussian polarization

Reference energy: -53998.593513

Spin-paired calculation

Occupation numbers:
  Fermi-Dirac: width=0.1000 eV

Convergence criteria:
  Maximum total energy change: 0.0005 eV / electron
  Maximum integral of absolute density change: 0.0001 electrons
  Maximum integral of absolute eigenstate change: 4e-08 eV^2
  Maximum number of iterations: 333

Symmetries present (total): 1

  ( 1  0  0)
  ( 0  1  0)
  ( 0  0  1)

1 k-point (Gamma)
1 k-point in the irreducible part of the Brillouin zone
       k-points in crystal coordinates                weights
   0:     0.00000000    0.00000000    0.00000000          1/1

Wave functions: LCAO
  Diagonalizer: Serial LAPACK
  Atomic Correction: dense with blas
  Datatype: float
 

Eigensolver
   LCAO using direct dense diagonalizer 

Densities:
  Coarse grid: 44*44*44 grid
  Fine grid: 88*88*88 grid
  Total Charge: 1.000000 

Density mixing:
  Method: separate
  Backend: pulay
  Linear mixing parameter: 0.05
  Mixing with 5 old densities
  Damping of long wave oscillations: 50 

Hamiltonian:
  XC and Coulomb potentials evaluated on a 88*88*88 grid
  Using the PBE Exchange-Correlation functional
  Interpolation: tri-quintic (5. degree polynomial)
  Poisson solver: FastPoissonSolver using
    6*3+1=19 point O(h^6) finite-difference Laplacian stencil;
    FFT axes: [0, 1, 2];
    FST axes: [].
 

XC parameters: PBE with 2 nearest neighbor stencil

Memory estimate:
  Process memory now: 104.59 MiB
  Calculator: 18.64 MiB
    Density: 5.66 MiB
      Arrays: 1.73 MiB
      Localized functions: 3.27 MiB
      Mixer: 0.66 MiB
    Hamiltonian: 1.37 MiB
      Arrays: 1.13 MiB
      XC: 0.00 MiB
      Poisson: 0.00 MiB
      vbar: 0.24 MiB
    Wavefunctions: 11.62 MiB
      C [qnM]: 0.53 MiB
      S, T [2 x qmm]: 4.94 MiB
      P [aqMi]: 0.03 MiB
      BasisFunctions: 6.11 MiB
      Eigensolver: 0.00 MiB

Total number of cores used: 10
Domain decomposition: 5 x 2 x 1

Number of atoms: 73
Number of atomic orbitals: 569
Number of bands in calculation: 123
Bands to converge: occupied states only
Number of valence electrons: 198

... initialized

Initializing position-dependent things.

Density initialized from atomic densities
       .---------------------.  
      /|                     |  
     / |     H               |  
    /  |                   H |  
   /   | H  OH             O |  
  / H OH       OHH    H      |  
 *H   H|      H O HHO        |  
 |     O      H   H  OH      |  
 | H  O| H   OH           H  |  
 |    H|  HHO  H    HH O     |  
 |     O   H      O O  HO    |  
 |     .H---H-O-H--H--H------.  
 |    /        H   O      H /   
 |   /H  OH  O     H       /    
 |  /  H     H            /     
 | /             O       /      
 |/  OH         H  H    /       
 *Na-------------------*        

Positions:
   0 O      2.819396    5.591711    3.146020    ( 0.0000,  0.0000,  0.0000)
   1 O      3.099917    9.485477    3.089785    ( 0.0000,  0.0000,  0.0000)
   2 O      0.556171    5.696983    0.341817    ( 0.0000,  0.0000,  0.0000)
   3 O      3.936436    2.777345    1.804092    ( 0.0000,  0.0000,  0.0000)
   4 O      6.479010    3.280136    2.503079    ( 0.0000,  0.0000,  0.0000)
   5 O      4.455530    6.050972    5.298088    ( 0.0000,  0.0000,  0.0000)
   6 O      2.310272    9.375748    5.600094    ( 0.0000,  0.0000,  0.0000)
   7 O      5.800264    7.625937    1.605669    ( 0.0000,  0.0000,  0.0000)
   8 O      6.338016    1.347520    9.702072    ( 0.0000,  0.0000,  0.0000)
   9 O      2.581227    7.107987    7.055536    ( 0.0000,  0.0000,  0.0000)
  10 O      1.628563    9.167816    0.832191    ( 0.0000,  0.0000,  0.0000)
  11 O      1.502673    3.972226    6.005292    ( 0.0000,  0.0000,  0.0000)
  12 O      5.088587    2.974060   -0.969587    ( 0.0000,  0.0000,  0.0000)
  13 O      0.274792    5.873312    4.463709    ( 0.0000,  0.0000,  0.0000)
  14 O      1.295751    2.682126   -0.398219    ( 0.0000,  0.0000,  0.0000)
  15 O      5.265598    8.403950    4.141343    ( 0.0000,  0.0000,  0.0000)
  16 O     -0.778106    0.441675   -0.782765    ( 0.0000,  0.0000,  0.0000)
  17 O      6.539808    4.846939    6.315423    ( 0.0000,  0.0000,  0.0000)
  18 O      3.971487    2.638825    5.721310    ( 0.0000,  0.0000,  0.0000)
  19 O     -0.343688   10.603621    5.997180    ( 0.0000,  0.0000,  0.0000)
  20 O     -0.244886    6.811734   -1.934602    ( 0.0000,  0.0000,  0.0000)
  21 O      3.208031    7.270903    0.766212    ( 0.0000,  0.0000,  0.0000)
  22 O      7.730394    5.626485    2.429047    ( 0.0000,  0.0000,  0.0000)
  23 O     -2.694197   10.717943    4.758473    ( 0.0000,  0.0000,  0.0000)
  24 H      1.966372    6.024747    3.405222    ( 0.0000,  0.0000,  0.0000)
  25 H      2.624229    4.597310    3.083039    ( 0.0000,  0.0000,  0.0000)
  26 H      3.334396   10.384345    2.567373    ( 0.0000,  0.0000,  0.0000)
  27 H      2.379554    9.228452    2.356907    ( 0.0000,  0.0000,  0.0000)
  28 H      0.817734    4.685958    0.355311    ( 0.0000,  0.0000,  0.0000)
  29 H     -0.144963    5.740228    1.148496    ( 0.0000,  0.0000,  0.0000)
  30 H      4.088526    3.201615    0.949509    ( 0.0000,  0.0000,  0.0000)
  31 H      4.843799    2.937269    2.290479    ( 0.0000,  0.0000,  0.0000)
  32 H      6.574140    2.475488    1.892463    ( 0.0000,  0.0000,  0.0000)
  33 H      6.389243    2.783887    3.381727    ( 0.0000,  0.0000,  0.0000)
  34 H      3.883341    5.839987    4.450245    ( 0.0000,  0.0000,  0.0000)
  35 H      3.618827    6.305185    5.911467    ( 0.0000,  0.0000,  0.0000)
  36 H      2.471214    9.614647    4.660812    ( 0.0000,  0.0000,  0.0000)
  37 H      1.575885    9.999238    5.850364    ( 0.0000,  0.0000,  0.0000)
  38 H      5.532248    7.826546    2.582969    ( 0.0000,  0.0000,  0.0000)
  39 H      4.845581    7.419149    1.334738    ( 0.0000,  0.0000,  0.0000)
  40 H      7.143854    1.202327    9.048474    ( 0.0000,  0.0000,  0.0000)
  41 H      6.004198    0.428965    9.939264    ( 0.0000,  0.0000,  0.0000)
  42 H      2.678557    7.985743    6.634532    ( 0.0000,  0.0000,  0.0000)
  43 H      1.528824    6.937033    7.060695    ( 0.0000,  0.0000,  0.0000)
  44 H      1.842081   10.033868    0.547738    ( 0.0000,  0.0000,  0.0000)
  45 H      2.348385    8.503293    0.578365    ( 0.0000,  0.0000,  0.0000)
  46 H      2.409669    3.624558    5.692078    ( 0.0000,  0.0000,  0.0000)
  47 H      1.050754    4.588423    5.359046    ( 0.0000,  0.0000,  0.0000)
  48 H      5.677060    3.673700   -1.381131    ( 0.0000,  0.0000,  0.0000)
  49 H      5.427648    2.103071   -0.558916    ( 0.0000,  0.0000,  0.0000)
  50 H      0.101987    6.383731    5.294245    ( 0.0000,  0.0000,  0.0000)
  51 H     -0.466506    5.809962    3.768242    ( 0.0000,  0.0000,  0.0000)
  52 H      0.355029    2.637903   -0.602675    ( 0.0000,  0.0000,  0.0000)
  53 H      1.501826    3.186353   -1.220363    ( 0.0000,  0.0000,  0.0000)
  54 H      4.891182    7.502940    4.543566    ( 0.0000,  0.0000,  0.0000)
  55 H      4.447301    8.825490    3.630088    ( 0.0000,  0.0000,  0.0000)
  56 H      0.161297    0.362959   -0.292342    ( 0.0000,  0.0000,  0.0000)
  57 H     -0.583601    1.001960   -1.573087    ( 0.0000,  0.0000,  0.0000)
  58 H      5.846414    5.399174    5.952066    ( 0.0000,  0.0000,  0.0000)
  59 H      7.260046    5.411124    6.723603    ( 0.0000,  0.0000,  0.0000)
  60 H      4.372608    2.696673    6.726093    ( 0.0000,  0.0000,  0.0000)
  61 H      3.453167    1.777143    5.846797    ( 0.0000,  0.0000,  0.0000)
  62 H     -1.283815   10.927743    5.580953    ( 0.0000,  0.0000,  0.0000)
  63 H      0.059086   11.481749    5.802292    ( 0.0000,  0.0000,  0.0000)
  64 H     -0.119126    6.295339   -0.965805    ( 0.0000,  0.0000,  0.0000)
  65 H     -0.572851    7.692809   -1.544432    ( 0.0000,  0.0000,  0.0000)
  66 H      3.068325    6.956068   -0.207916    ( 0.0000,  0.0000,  0.0000)
  67 H      2.739850    6.595922    1.335783    ( 0.0000,  0.0000,  0.0000)
  68 H      7.148827    4.685738    2.344262    ( 0.0000,  0.0000,  0.0000)
  69 H      7.090848    6.400919    2.141208    ( 0.0000,  0.0000,  0.0000)
  70 H     -3.625543   11.033312    5.092160    ( 0.0000,  0.0000,  0.0000)
  71 H     -2.935576    9.709105    4.452144    ( 0.0000,  0.0000,  0.0000)
  72 Na     0.500000    0.000000    0.000000    ( 0.0000,  0.0000,  0.0000)

Unit cell:
           periodic     x           y           z      points  spacing
  1. axis:    yes    8.956370    0.000000    0.000000    44     0.2036
  2. axis:    yes    0.000000    8.956370    0.000000    44     0.2036
  3. axis:    yes    0.000000    0.000000    8.956370    44     0.2036

  Lengths:   8.956370   8.956370   8.956370
  Angles:   90.000000  90.000000  90.000000

Effective grid spacing dv^(1/3) = 0.2036

                     log10-error:    total        iterations:
           time      wfs    density  energy       fermi  poisson
iter:   1  08:53:57          +inf  -321.670094    0      1      
iter:   2  08:53:58         -0.86  -316.906818    0      1      
iter:   3  08:53:59         -0.90  -303.320150    12     1      
iter:   4  08:54:00         -1.25  -303.534172    2      1      
iter:   5  08:54:01         -1.34  -302.896989    6      1      
iter:   6  08:54:02         -2.27  -302.863472    1      1      
iter:   7  08:54:03         -2.38  -302.862746    2      1      
iter:   8  08:54:04         -2.60  -302.856234    2      1      
iter:   9  08:54:05         -3.22  -302.856020    1      1      
iter:  10  08:54:05         -3.30  -302.855748    1      1      
iter:  11  08:54:06         -3.72  -302.855737    0      1      
iter:  12  08:54:07         -3.77  -302.855695    1      1      
iter:  13  08:54:08         -4.37  -302.855694    0      1      

Converged after 13 iterations.

Dipole moment: (7.305074, -18.810332, 5.791308) |e|*Ang

Energy contributions relative to reference atoms: (reference = -53998.593513)

Kinetic:       +382.323339
Potential:     -382.337898
External:        +0.000000
XC:            -312.287779
Entropy (-ST):   -0.000000
Local:           +9.446644
--------------------------
Free energy:   -302.855694
Extrapolated:  -302.855694

Fermi level: -0.35206

 Band  Eigenvalues  Occupancy
    0    -37.44155    2.00000
    1    -33.14528    2.00000
    2    -32.53137    2.00000
    3    -23.91087    2.00000
    4    -22.91254    2.00000
    5    -22.21444    2.00000
    6    -22.01325    2.00000
    7    -21.74864    2.00000
    8    -21.64946    2.00000
    9    -21.45338    2.00000
   10    -21.40141    2.00000
   11    -21.32072    2.00000
   12    -21.12252    2.00000
   13    -21.02712    2.00000
   14    -20.97367    2.00000
   15    -20.88086    2.00000
   16    -20.81744    2.00000
   17    -20.65548    2.00000
   18    -20.53948    2.00000
   19    -20.49416    2.00000
   20    -20.35368    2.00000
   21    -20.30471    2.00000
   22    -20.13079    2.00000
   23    -19.93871    2.00000
   24    -19.84461    2.00000
   25    -19.77613    2.00000
   26    -19.39474    2.00000
   27    -12.53086    2.00000
   28    -10.00919    2.00000
   29     -9.96557    2.00000
   30     -9.83014    2.00000
   31     -9.59375    2.00000
   32     -9.52162    2.00000
   33     -9.43137    2.00000
   34     -9.28826    2.00000
   35     -9.19752    2.00000
   36     -9.17495    2.00000
   37     -9.08845    2.00000
   38     -8.96249    2.00000
   39     -8.92140    2.00000
   40     -8.74773    2.00000
   41     -8.69278    2.00000
   42     -8.63724    2.00000
   43     -8.50527    2.00000
   44     -8.44153    2.00000
   45     -8.41843    2.00000
   46     -8.14952    2.00000
   47     -8.07364    2.00000
   48     -7.96674    2.00000
   49     -7.88686    2.00000
   50     -7.81338    2.00000
   51     -7.63457    2.00000
   52     -7.48443    2.00000
   53     -7.45400    2.00000
   54     -7.18524    2.00000
   55     -6.92185    2.00000
   56     -6.74104    2.00000
   57     -6.57417    2.00000
   58     -6.54308    2.00000
   59     -6.32415    2.00000
   60     -6.13285    2.00000
   61     -6.04599    2.00000
   62     -5.92434    2.00000
   63     -5.81975    2.00000
   64     -5.70028    2.00000
   65     -5.56914    2.00000
   66     -5.47322    2.00000
   67     -5.46397    2.00000
   68     -5.28928    2.00000
   69     -5.07437    2.00000
   70     -4.95759    2.00000
   71     -4.87999    2.00000
   72     -4.78717    2.00000
   73     -4.61936    2.00000
   74     -4.51323    2.00000
   75     -4.37517    2.00000
   76     -4.31049    2.00000
   77     -4.16472    2.00000
   78     -4.03685    2.00000
   79     -3.96133    2.00000
   80     -3.82616    2.00000
   81     -3.71238    2.00000
   82     -3.59038    2.00000
   83     -3.55060    2.00000
   84     -3.50643    2.00000
   85     -3.44487    2.00000
   86     -3.32548    2.00000
   87     -3.19335    2.00000
   88     -3.13825    2.00000
   89     -3.09732    2.00000
   90     -2.96184    2.00000
   91     -2.91941    2.00000
   92     -2.87474    2.00000
   93     -2.81250    2.00000
   94     -2.76794    2.00000
   95     -2.72693    2.00000
   96     -2.62102    2.00000
   97     -2.49850    2.00000
   98     -2.15462    2.00000
   99      1.44558    0.00000
  100      3.63770    0.00000
  101      3.69914    0.00000
  102      3.78713    0.00000
  103      4.03922    0.00000
  104      4.39001    0.00000
  105      4.91303    0.00000
  106      5.54235    0.00000
  107      5.56542    0.00000
  108      5.72404    0.00000
  109      6.00758    0.00000
  110      6.06795    0.00000
  111      6.19893    0.00000
  112      6.31039    0.00000
  113      6.41583    0.00000
  114      6.46732    0.00000
  115      6.64558    0.00000
  116      6.75912    0.00000
  117      7.12082    0.00000
  118      7.29536    0.00000
  119      7.37246    0.00000
  120      7.86096    0.00000
  121      7.92369    0.00000
  122      8.08654    0.00000

Gap: 3.600 eV
Transition (v -> c):
  (s=0, k=0, n=98, [0.00, 0.00, 0.00]) -> (s=0, k=0, n=99, [0.00, 0.00, 0.00])

Forces in eV/Ang:
  0 O     0.32206   -0.73209   -0.62102
  1 O    -1.35663    1.41480   -2.34550
  2 O    -0.54872   -1.26956    1.02002
  3 O    -0.00916   -0.46036    2.02026
  4 O    -0.26569    0.00713   -0.01681
  5 O    -2.76123    0.93049   -0.39907
  6 O    -0.32068    0.34331    1.63789
  7 O    -0.78647    0.23298    0.67703
  8 O     0.68887    0.20280   -0.81673
  9 O    -1.70133   -1.36810    1.15825
 10 O    19.04329    2.42010   16.05669
 11 O     0.36037   -1.07727    0.81516
 12 O    -1.56646   -0.35988    0.27711
 13 O     1.44456   -0.40889    0.05019
 14 O     0.36945   -0.34946    0.83144
 15 O    -1.37363   -0.70191   -0.96847
 16 O   -10.67985    4.35256   -6.28075
 17 O     2.05299   -1.80955    1.65622
 18 O    -0.36653   -0.54364    1.02233
 19 O    -1.38587    0.98037   -0.62480
 20 O     0.34599    0.07420    2.79683
 21 O    -0.25274   -0.08658   -1.11332
 22 O    -1.46491   -0.24173   -1.32546
 23 O    -0.46341   -0.99850   -0.77773
 24 H    -0.72244   -0.29977    0.66775
 25 H     0.20346    1.02085   -0.01178
 26 H     0.39864   -0.70074    0.88671
 27 H     1.28265   -0.07740    1.55335
 28 H    -0.31778    1.72396   -0.25870
 29 H     0.39116   -0.38864   -0.42889
 30 H     0.24352    0.33600   -1.29064
 31 H    -0.75330    0.25671   -0.68868
 32 H     0.11911    0.12418   -0.59502
 33 H     0.36663    0.00571    0.89607
 34 H     0.76126   -0.27635    0.52203
 35 H     1.75999   -0.34176   -0.54079
 36 H     0.33601   -0.22145   -1.47591
 37 H    -0.31757   -0.32749   -0.17177
 38 H     1.05502    0.24391    0.02644
 39 H     0.48963   -0.27034   -0.74772
 40 H    -1.30187   -0.43386    0.84583
 41 H     0.23177   -0.36614    0.13476
 42 H    -0.11182    1.10310   -0.84788
 43 H     1.52798    0.17581   -0.45469
 44 H     1.85493    3.41490   -0.49019
 45 H     1.72516   -1.07183    0.77395
 46 H    -0.32840    0.39377   -0.03487
 47 H     0.01788    0.37480   -0.51789
 48 H     0.93984   -0.27221   -0.06015
 49 H     0.83109    1.21621   -0.09837
 50 H    -0.66789    0.12693   -0.37582
 51 H    -0.33298    0.19752    0.33834
 52 H    -1.67774   -0.11477    0.09332
 53 H     1.01078    0.66591   -1.24667
 54 H     0.49957    0.76406    0.21036
 55 H     0.58348   -0.56211    0.84507
 56 H   -37.51969   35.90761  -30.65424
 57 H    -0.79798    1.18397   -2.35193
 58 H    -1.39538    1.27254   -0.76452
 59 H    -0.73086   -0.02908   -0.54350
 60 H    -0.10390    0.49482   -0.79921
 61 H     0.13656    0.19153   -0.40700
 62 H     0.15280   -1.68192    0.29545
 63 H     1.29589    0.67456    0.36075
 64 H     0.23095   -0.00781   -1.54213
 65 H    -0.40433   -0.40377   -1.10296
 66 H     0.19941    0.10219    0.30269
 67 H     0.13621   -0.18849    0.18869
 68 H     0.88115    1.35453    0.41090
 69 H     0.29549   -1.16390    0.36791
 70 H     0.41053    0.26656    0.15180
 71 H     0.49826    1.44066    0.84059
 72 Na   26.94057  -46.31473   22.95097

System changes: positions 

Initializing position-dependent things.

Density initialized from wave functions
       .---------------------.  
      /|                     |  
     / |     H               |  
    /  |     H             H |  
   /   | H  O              O |  
  / H OH       OHH    H      |  
 *H   H|      H O HHO        |  
 |     O      H   H  OH      |  
 | H  O| H   OH           H  |  
 |    H|  HHO  H    HH O     |  
 |     O   H      O O  HO    |  
 |     .Ha--H-O-H--H--H------.  
 |    /        H   O       H/   
 |   /H  OH  O     H       /    
 |  /  H     H            /     
 | /            HO       /      
 |/  OH            H    /       
 *---------------------*        

Positions:
   0 O      2.817230    5.587840    3.143870    ( 0.0000,  0.0000,  0.0000)
   1 O      3.097826    9.483393    3.086817    ( 0.0000,  0.0000,  0.0000)
   2 O      0.553969    5.697081    0.342451    ( 0.0000,  0.0000,  0.0000)
   3 O      3.936515    2.777812    1.807199    ( 0.0000,  0.0000,  0.0000)
   4 O      6.475031    3.278807    2.502163    ( 0.0000,  0.0000,  0.0000)
   5 O      4.454088    6.049663    5.300002    ( 0.0000,  0.0000,  0.0000)
   6 O      2.310535    9.373661    5.598663    ( 0.0000,  0.0000,  0.0000)
   7 O      5.798206    7.627129    1.605335    ( 0.0000,  0.0000,  0.0000)
   8 O      6.338823    1.348339    9.701654    ( 0.0000,  0.0000,  0.0000)
   9 O      2.583945    7.110970    7.059531    ( 0.0000,  0.0000,  0.0000)
  10 O      1.630979    9.169238    0.835718    ( 0.0000,  0.0000,  0.0000)
  11 O      1.505433    3.970647    6.006587    ( 0.0000,  0.0000,  0.0000)
  12 O      5.087421    2.971053   -0.970361    ( 0.0000,  0.0000,  0.0000)
  13 O      0.270787    5.874370    4.461817    ( 0.0000,  0.0000,  0.0000)
  14 O      1.298850    2.679872   -0.400084    ( 0.0000,  0.0000,  0.0000)
  15 O      5.268440    8.402360    4.142206    ( 0.0000,  0.0000,  0.0000)
  16 O     -0.779735    0.441800   -0.785809    ( 0.0000,  0.0000,  0.0000)
  17 O      6.542062    4.847266    6.313624    ( 0.0000,  0.0000,  0.0000)
  18 O      3.975983    2.641783    5.720217    ( 0.0000,  0.0000,  0.0000)
  19 O     -0.346504   10.603468    5.992145    ( 0.0000,  0.0000,  0.0000)
  20 O     -0.244958    6.810589   -1.928289    ( 0.0000,  0.0000,  0.0000)
  21 O      3.209706    7.271786    0.766570    ( 0.0000,  0.0000,  0.0000)
  22 O      7.730694    5.630899    2.428943    ( 0.0000,  0.0000,  0.0000)
  23 O     -2.696934   10.717354    4.755888    ( 0.0000,  0.0000,  0.0000)
  24 H      1.960307    6.011885    3.404551    ( 0.0000,  0.0000,  0.0000)
  25 H      2.616539    4.604080    3.084284    ( 0.0000,  0.0000,  0.0000)
  26 H      3.323948   10.386195    2.563916    ( 0.0000,  0.0000,  0.0000)
  27 H      2.380226    9.237814    2.373188    ( 0.0000,  0.0000,  0.0000)
  28 H      0.825345    4.693566    0.361932    ( 0.0000,  0.0000,  0.0000)
  29 H     -0.131609    5.768502    1.147145    ( 0.0000,  0.0000,  0.0000)
  30 H      4.090925    3.199806    0.948372    ( 0.0000,  0.0000,  0.0000)
  31 H      4.842051    2.935280    2.276766    ( 0.0000,  0.0000,  0.0000)
  32 H      6.568559    2.483473    1.899590    ( 0.0000,  0.0000,  0.0000)
  33 H      6.403456    2.759296    3.377404    ( 0.0000,  0.0000,  0.0000)
  34 H      3.883475    5.853438    4.460308    ( 0.0000,  0.0000,  0.0000)
  35 H      3.618016    6.301691    5.913641    ( 0.0000,  0.0000,  0.0000)
  36 H      2.473568    9.612221    4.654224    ( 0.0000,  0.0000,  0.0000)
  37 H      1.589696   10.011486    5.836286    ( 0.0000,  0.0000,  0.0000)
  38 H      5.552598    7.832236    2.589052    ( 0.0000,  0.0000,  0.0000)
  39 H      4.843411    7.431006    1.335769    ( 0.0000,  0.0000,  0.0000)
  40 H      7.113300    1.217091    9.043373    ( 0.0000,  0.0000,  0.0000)
  41 H      6.015768    0.432548    9.943249    ( 0.0000,  0.0000,  0.0000)
  42 H      2.690486    7.985942    6.636500    ( 0.0000,  0.0000,  0.0000)
  43 H      1.525183    6.934928    7.074750    ( 0.0000,  0.0000,  0.0000)
  44 H      1.842452   10.027789    0.540852    ( 0.0000,  0.0000,  0.0000)
  45 H      2.340606    8.507701    0.570203    ( 0.0000,  0.0000,  0.0000)
  46 H      2.396377    3.633848    5.692209    ( 0.0000,  0.0000,  0.0000)
  47 H      1.070453    4.581287    5.364381    ( 0.0000,  0.0000,  0.0000)
  48 H      5.673235    3.676147   -1.360558    ( 0.0000,  0.0000,  0.0000)
  49 H      5.438000    2.095689   -0.546226    ( 0.0000,  0.0000,  0.0000)
  50 H      0.105307    6.385059    5.287634    ( 0.0000,  0.0000,  0.0000)
  51 H     -0.461355    5.820358    3.768738    ( 0.0000,  0.0000,  0.0000)
  52 H      0.360343    2.640879   -0.617691    ( 0.0000,  0.0000,  0.0000)
  53 H      1.507284    3.176633   -1.229643    ( 0.0000,  0.0000,  0.0000)
  54 H      4.900575    7.494443    4.546647    ( 0.0000,  0.0000,  0.0000)
  55 H      4.455599    8.839047    3.638253    ( 0.0000,  0.0000,  0.0000)
  56 H      0.110365    0.407779   -0.314478    ( 0.0000,  0.0000,  0.0000)
  57 H     -0.576509    1.002253   -1.573282    ( 0.0000,  0.0000,  0.0000)
  58 H      5.856846    5.406974    5.970332    ( 0.0000,  0.0000,  0.0000)
  59 H      7.251451    5.410165    6.733441    ( 0.0000,  0.0000,  0.0000)
  60 H      4.370103    2.682540    6.736875    ( 0.0000,  0.0000,  0.0000)
  61 H      3.450522    1.773085    5.844788    ( 0.0000,  0.0000,  0.0000)
  62 H     -1.284330   10.925273    5.586807    ( 0.0000,  0.0000,  0.0000)
  63 H      0.072508   11.477973    5.797876    ( 0.0000,  0.0000,  0.0000)
  64 H     -0.131634    6.299870   -0.979064    ( 0.0000,  0.0000,  0.0000)
  65 H     -0.591343    7.684369   -1.533789    ( 0.0000,  0.0000,  0.0000)
  66 H      3.071511    6.954286   -0.207634    ( 0.0000,  0.0000,  0.0000)
  67 H      2.742362    6.597257    1.337361    ( 0.0000,  0.0000,  0.0000)
  68 H      7.159746    4.691585    2.326379    ( 0.0000,  0.0000,  0.0000)
  69 H      7.087653    6.405388    2.150268    ( 0.0000,  0.0000,  0.0000)
  70 H     -3.627726   11.038224    5.096605    ( 0.0000,  0.0000,  0.0000)
  71 H     -2.944716    9.714474    4.455813    ( 0.0000,  0.0000,  0.0000)
  72 Na     0.501433   -0.002461    0.001337    ( 0.0000,  0.0000,  0.0000)

Unit cell:
           periodic     x           y           z      points  spacing
  1. axis:    yes    8.956370    0.000000    0.000000    44     0.2036
  2. axis:    yes    0.000000    8.956370    0.000000    44     0.2036
  3. axis:    yes    0.000000    0.000000    8.956370    44     0.2036

  Lengths:   8.956370   8.956370   8.956370
  Angles:   90.000000  90.000000  90.000000

Effective grid spacing dv^(1/3) = 0.2036

                     log10-error:    total        iterations:
           time      wfs    density  energy       fermi  poisson
iter:   1  08:54:12          +inf  -307.222758    2      1      
iter:   2  08:54:13         -2.38  -307.207451    1      1      
iter:   3  08:54:13         -2.43  -307.157534    1      1      
iter:   4  08:54:14         -2.68  -307.152021    1      1      
iter:   5  08:54:15         -3.20  -307.151752    1      1      
iter:   6  08:54:16         -3.27  -307.151379    1      1      
iter:   7  08:54:17         -3.69  -307.151330    1      1      
iter:   8  08:54:18         -4.16  -307.151328    1      1      

Converged after 8 iterations.

Dipole moment: (7.166423, -18.876116, 5.764874) |e|*Ang

Energy contributions relative to reference atoms: (reference = -53998.593513)

Kinetic:       +382.781217
Potential:     -386.045213
External:        +0.000000
XC:            -313.329695
Entropy (-ST):   -0.000000
Local:           +9.442363
--------------------------
Free energy:   -307.151328
Extrapolated:  -307.151328

Fermi level: -0.34434

 Band  Eigenvalues  Occupancy
    0    -35.71309    2.00000
    1    -31.51042    2.00000
    2    -30.82513    2.00000
    3    -23.81560    2.00000
    4    -22.90059    2.00000
    5    -22.26184    2.00000
    6    -22.02439    2.00000
    7    -21.78130    2.00000
    8    -21.70128    2.00000
    9    -21.48305    2.00000
   10    -21.45716    2.00000
   11    -21.33904    2.00000
   12    -21.15540    2.00000
   13    -21.08779    2.00000
   14    -21.03375    2.00000
   15    -20.93384    2.00000
   16    -20.82676    2.00000
   17    -20.75062    2.00000
   18    -20.64682    2.00000
   19    -20.50852    2.00000
   20    -20.47722    2.00000
   21    -20.36835    2.00000
   22    -20.17529    2.00000
   23    -19.92903    2.00000
   24    -19.91768    2.00000
   25    -19.84181    2.00000
   26    -19.38362    2.00000
   27    -12.38201    2.00000
   28    -10.08480    2.00000
   29     -9.92240    2.00000
   30     -9.88565    2.00000
   31     -9.64803    2.00000
   32     -9.57171    2.00000
   33     -9.42782    2.00000
   34     -9.33815    2.00000
   35     -9.30506    2.00000
   36     -9.17709    2.00000
   37     -9.15045    2.00000
   38     -9.01187    2.00000
   39     -8.97851    2.00000
   40     -8.81542    2.00000
   41     -8.74278    2.00000
   42     -8.65510    2.00000
   43     -8.49173    2.00000
   44     -8.46092    2.00000
   45     -8.38689    2.00000
   46     -8.22172    2.00000
   47     -8.07676    2.00000
   48     -7.95825    2.00000
   49     -7.88418    2.00000
   50     -7.79926    2.00000
   51     -7.61231    2.00000
   52     -7.54100    2.00000
   53     -7.46530    2.00000
   54     -7.23632    2.00000
   55     -7.01097    2.00000
   56     -6.73959    2.00000
   57     -6.68312    2.00000
   58     -6.52077    2.00000
   59     -6.39213    2.00000
   60     -6.13320    2.00000
   61     -6.06709    2.00000
   62     -5.94869    2.00000
   63     -5.81722    2.00000
   64     -5.73908    2.00000
   65     -5.57594    2.00000
   66     -5.50222    2.00000
   67     -5.45938    2.00000
   68     -5.26471    2.00000
   69     -5.09711    2.00000
   70     -4.98527    2.00000
   71     -4.95429    2.00000
   72     -4.79708    2.00000
   73     -4.61008    2.00000
   74     -4.49942    2.00000
   75     -4.43580    2.00000
   76     -4.31012    2.00000
   77     -4.21520    2.00000
   78     -4.03827    2.00000
   79     -3.95421    2.00000
   80     -3.81264    2.00000
   81     -3.73642    2.00000
   82     -3.60556    2.00000
   83     -3.59924    2.00000
   84     -3.56541    2.00000
   85     -3.49350    2.00000
   86     -3.34914    2.00000
   87     -3.17745    2.00000
   88     -3.13100    2.00000
   89     -3.09454    2.00000
   90     -3.05441    2.00000
   91     -2.94786    2.00000
   92     -2.89227    2.00000
   93     -2.83276    2.00000
   94     -2.80409    2.00000
   95     -2.73024    2.00000
   96     -2.62633    2.00000
   97     -2.50204    2.00000
   98     -2.19441    2.00000
   99      1.49896    0.00000
  100      3.69839    0.00000
  101      3.70714    0.00000
  102      3.82382    0.00000
  103      4.05766    0.00000
  104      4.41113    0.00000
  105      4.91505    0.00000
  106      5.58269    0.00000
  107      5.59750    0.00000
  108      5.75252    0.00000
  109      6.03018    0.00000
  110      6.10223    0.00000
  111      6.20357    0.00000
  112      6.31053    0.00000
  113      6.44753    0.00000
  114      6.47118    0.00000
  115      6.66229    0.00000
  116      6.76774    0.00000
  117      7.11420    0.00000
  118      7.30483    0.00000
  119      7.40129    0.00000
  120      7.89165    0.00000
  121      7.97272    0.00000
  122      8.11940    0.00000

Gap: 3.693 eV
Transition (v -> c):
  (s=0, k=0, n=98, [0.00, 0.00, 0.00]) -> (s=0, k=0, n=99, [0.00, 0.00, 0.00])

Forces in eV/Ang:
  0 O     0.28302   -0.41094   -0.56140
  1 O    -1.05003    1.65547   -2.00081
  2 O    -0.35915   -1.05769    0.84844
  3 O    -0.19101   -0.41265    1.65484
  4 O    -0.25244    0.07029    0.37495
  5 O    -2.61834    1.01543   -0.17348
  6 O    -0.20368    0.37040    1.34593
  7 O    -0.56946    0.31702    0.71215
  8 O     0.30035    0.42878   -0.60750
  9 O    -1.81906   -1.49531    1.19923
 10 O    18.77261    2.38697   16.11770
 11 O     0.07908   -1.15936    1.23199
 12 O    -1.52733   -0.89600    0.57592
 13 O     1.72188   -0.49118    0.08226
 14 O     0.32921   -0.27277    0.64251
 15 O    -1.29829   -0.73402   -0.89874
 16 O   -10.66318    4.33590   -6.21679
 17 O     2.29070   -2.07219    1.76930
 18 O    -0.51897   -0.89289    1.22609
 19 O    -1.16335    1.03027   -0.49410
 20 O     0.18488    0.32314    2.55555
 21 O    -0.24110   -0.15573   -1.13648
 22 O    -1.45159   -0.19005   -1.33288
 23 O    -0.48191   -0.88681   -0.70369
 24 H    -0.69628   -0.20192    0.65144
 25 H     0.21552    0.63238   -0.05552
 26 H     0.45360   -0.71557    0.92713
 27 H     0.93889   -0.27914    1.17311
 28 H    -0.36539    1.61948   -0.19069
 29 H     0.30246   -0.55124   -0.33199
 30 H     0.15727    0.25702   -1.17259
 31 H    -0.52368    0.28480   -0.43009
 32 H     0.20197   -0.09842   -0.88799
 33 H     0.30195    0.20163    0.81498
 34 H     0.65358   -0.39080    0.25582
 35 H     1.75071   -0.30489   -0.49568
 36 H     0.35037   -0.31124   -1.30158
 37 H    -0.44448   -0.26181   -0.05103
 38 H     0.91950    0.20937   -0.04962
 39 H     0.37250   -0.28558   -0.69392
 40 H    -0.79879   -0.49950    0.56409
 41 H     0.12776   -0.57679    0.16249
 42 H    -0.18861    1.10806   -0.83973
 43 H     1.72338    0.29907   -0.50935
 44 H     1.87821    3.60803   -0.58303
 45 H     1.77968   -1.11513    0.75596
 46 H     0.24891    0.14499   -0.17884
 47 H    -0.30265    0.70492   -0.81702
 48 H     1.03656   -0.12911   -0.18041
 49 H     0.63988    1.55375   -0.23012
 50 H    -0.70718    0.22949   -0.21970
 51 H    -0.55990    0.16691    0.15688
 52 H    -1.68415   -0.10526    0.13645
 53 H     1.03643    0.61244   -1.09659
 54 H     0.43954    0.89500    0.13980
 55 H     0.51835   -0.69329    0.81691
 56 H   -33.58833   31.55622  -25.80077
 57 H    -0.80541    1.24235   -2.50751
 58 H    -1.78057    1.50168   -0.95822
 59 H    -0.56453   -0.00006   -0.47401
 60 H    -0.08041    0.59315   -0.94410
 61 H     0.30673    0.45969   -0.48134
 62 H     0.09036   -1.57054    0.21625
 63 H     1.15006    0.53665    0.35801
 64 H     0.30043   -0.17278   -1.24998
 65 H    -0.30173   -0.45117   -1.16536
 66 H     0.19879    0.12537    0.35300
 67 H     0.14513   -0.17718    0.17709
 68 H     0.84375    1.38618    0.47948
 69 H     0.30761   -1.19245    0.32819
 70 H     0.44202    0.27077    0.10559
 71 H     0.53684    1.31291    0.80133
 72 Na   23.12295  -42.04182   18.16847

System changes: positions 

Initializing position-dependent things.

Density initialized from wave functions
       .---------------------.  
      /|                     |  
     / |     H               |  
    /  |     H             H |  
   /   | H  O              O |  
  / H OH       OHH    H      |  
 *    H|      H O HHO  H     |  
 |     O      H   H  OH      |  
 | H  O| H   OH           H  |  
 |    H|  HHO  H    HH O     |  
 |     O  H       O O  HO    |  
 |     .Ha--H-O-H--H--H------.  
 |    /        H   O       H/   
 |   /H  OH  O     H       /    
 |  /  H     H            /     
 | /            HO       /      
 |/  OH            H    /       
 *---------------------*        

Positions:
   0 O      2.815107    5.583907    3.141635    ( 0.0000,  0.0000,  0.0000)
   1 O      3.095576    9.481559    3.083548    ( 0.0000,  0.0000,  0.0000)
   2 O      0.551713    5.697019    0.343212    ( 0.0000,  0.0000,  0.0000)
   3 O      3.936566    2.778218    1.810555    ( 0.0000,  0.0000,  0.0000)
   4 O      6.471016    3.277489    2.501304    ( 0.0000,  0.0000,  0.0000)
   5 O      4.452251    6.048508    5.301890    ( 0.0000,  0.0000,  0.0000)
   6 O      2.310768    9.371631    5.597435    ( 0.0000,  0.0000,  0.0000)
   7 O      5.796063    7.628368    1.605109    ( 0.0000,  0.0000,  0.0000)
   8 O      6.339675    1.349223    9.701144    ( 0.0000,  0.0000,  0.0000)
   9 O      2.586388    7.113726    7.063707    ( 0.0000,  0.0000,  0.0000)
  10 O      1.636224    9.171020    0.841675    ( 0.0000,  0.0000,  0.0000)
  11 O      1.508206    3.968893    6.008068    ( 0.0000,  0.0000,  0.0000)
  12 O      5.086025    2.967911   -0.971049    ( 0.0000,  0.0000,  0.0000)
  13 O      0.267043    5.875353    4.459937    ( 0.0000,  0.0000,  0.0000)
  14 O      1.301999    2.677576   -0.401852    ( 0.0000,  0.0000,  0.0000)
  15 O      5.271085    8.400659    4.142933    ( 0.0000,  0.0000,  0.0000)
  16 O     -0.782971    0.442578   -0.789790    ( 0.0000,  0.0000,  0.0000)
  17 O      6.544661    4.847280    6.312092    ( 0.0000,  0.0000,  0.0000)
  18 O      3.980399    2.644605    5.719308    ( 0.0000,  0.0000,  0.0000)
  19 O     -0.349495   10.603470    5.987036    ( 0.0000,  0.0000,  0.0000)
  20 O     -0.245001    6.809493   -1.921591    ( 0.0000,  0.0000,  0.0000)
  21 O      3.211344    7.272644    0.766758    ( 0.0000,  0.0000,  0.0000)
  22 O      7.730775    5.635284    2.428638    ( 0.0000,  0.0000,  0.0000)
  23 O     -2.699744   10.716632    4.753197    ( 0.0000,  0.0000,  0.0000)
  24 H      1.952577    5.998541    3.405438    ( 0.0000,  0.0000,  0.0000)
  25 H      2.609365    4.612362    3.085396    ( 0.0000,  0.0000,  0.0000)
  26 H      3.314586   10.386332    2.562678    ( 0.0000,  0.0000,  0.0000)
  27 H      2.383145    9.246507    2.392275    ( 0.0000,  0.0000,  0.0000)
  28 H      0.832081    4.705049    0.368096    ( 0.0000,  0.0000,  0.0000)
  29 H     -0.117533    5.795453    1.144999    ( 0.0000,  0.0000,  0.0000)
  30 H      4.093700    3.198612    0.944428    ( 0.0000,  0.0000,  0.0000)
  31 H      4.839050    2.933973    2.262026    ( 0.0000,  0.0000,  0.0000)
  32 H      6.563462    2.491221    1.904590    ( 0.0000,  0.0000,  0.0000)
  33 H      6.418391    2.735190    3.375032    ( 0.0000,  0.0000,  0.0000)
  34 H      3.885174    5.865951    4.470982    ( 0.0000,  0.0000,  0.0000)
  35 H      3.621395    6.297467    5.914629    ( 0.0000,  0.0000,  0.0000)
  36 H      2.476760    9.609051    4.644523    ( 0.0000,  0.0000,  0.0000)
  37 H      1.602442   10.023106    5.822088    ( 0.0000,  0.0000,  0.0000)
  38 H      5.575146    7.838425    2.595016    ( 0.0000,  0.0000,  0.0000)
  39 H      4.842132    7.442179    1.335139    ( 0.0000,  0.0000,  0.0000)
  40 H      7.080838    1.230658    9.039623    ( 0.0000,  0.0000,  0.0000)
  41 H      6.027642    0.434752    9.947622    ( 0.0000,  0.0000,  0.0000)
  42 H      2.701962    7.988792    6.636459    ( 0.0000,  0.0000,  0.0000)
  43 H      1.525666    6.933540    7.087585    ( 0.0000,  0.0000,  0.0000)
  44 H      1.847318   10.030344    0.532571    ( 0.0000,  0.0000,  0.0000)
  45 H      2.337087    8.509440    0.563851    ( 0.0000,  0.0000,  0.0000)
  46 H      2.383682    3.643484    5.691912    ( 0.0000,  0.0000,  0.0000)
  47 H      1.089426    4.575839    5.367761    ( 0.0000,  0.0000,  0.0000)
  48 H      5.671892    3.678285   -1.340420    ( 0.0000,  0.0000,  0.0000)
  49 H      5.449883    2.092025   -0.534088    ( 0.0000,  0.0000,  0.0000)
  50 H      0.106935    6.386935    5.280499    ( 0.0000,  0.0000,  0.0000)
  51 H     -0.457544    5.831152    3.769610    ( 0.0000,  0.0000,  0.0000)
  52 H      0.361627    2.643604   -0.632379    ( 0.0000,  0.0000,  0.0000)
  53 H      1.515222    3.168380   -1.241546    ( 0.0000,  0.0000,  0.0000)
  54 H      4.911018    7.488088    4.550062    ( 0.0000,  0.0000,  0.0000)
  55 H      4.465137    8.850943    3.648373    ( 0.0000,  0.0000,  0.0000)
  56 H     -0.020934    0.528104   -0.398349    ( 0.0000,  0.0000,  0.0000)
  57 H     -0.571345    1.005520   -1.579478    ( 0.0000,  0.0000,  0.0000)
  58 H      5.863015    5.418365    5.986302    ( 0.0000,  0.0000,  0.0000)
  59 H      7.241507    5.409205    6.742143    ( 0.0000,  0.0000,  0.0000)
  60 H      4.367406    2.669827    6.745397    ( 0.0000,  0.0000,  0.0000)
  61 H      3.448611    1.770128    5.841627    ( 0.0000,  0.0000,  0.0000)
  62 H     -1.284629   10.919046    5.593177    ( 0.0000,  0.0000,  0.0000)
  63 H      0.088680   11.475481    5.794317    ( 0.0000,  0.0000,  0.0000)
  64 H     -0.143422    6.303988   -0.995313    ( 0.0000,  0.0000,  0.0000)
  65 H     -0.610556    7.674851   -1.525935    ( 0.0000,  0.0000,  0.0000)
  66 H      3.075172    6.952803   -0.206507    ( 0.0000,  0.0000,  0.0000)
  67 H      2.745221    6.598168    1.339361    ( 0.0000,  0.0000,  0.0000)
  68 H      7.172683    4.700749    2.309645    ( 0.0000,  0.0000,  0.0000)
  69 H      7.085195    6.407003    2.160112    ( 0.0000,  0.0000,  0.0000)
  70 H     -3.628851   11.043782    5.101303    ( 0.0000,  0.0000,  0.0000)
  71 H     -2.952570    9.722983    4.461399    ( 0.0000,  0.0000,  0.0000)
  72 Na     0.505292   -0.009333    0.004579    ( 0.0000,  0.0000,  0.0000)

Unit cell:
           periodic     x           y           z      points  spacing
  1. axis:    yes    8.956370    0.000000    0.000000    44     0.2036
  2. axis:    yes    0.000000    8.956370    0.000000    44     0.2036
  3. axis:    yes    0.000000    0.000000    8.956370    44     0.2036

  Lengths:   8.956370   8.956370   8.956370
  Angles:   90.000000  90.000000  90.000000

Effective grid spacing dv^(1/3) = 0.2036

                     log10-error:    total        iterations:
           time      wfs    density  energy       fermi  poisson
iter:   1  08:54:22          +inf  -315.845031    1      1      
iter:   2  08:54:23         -2.20  -315.790183    0      1      
iter:   3  08:54:23         -2.25  -315.598762    1      1      
iter:   4  08:54:24         -2.50  -315.576396    1      1      
iter:   5  08:54:25         -2.89  -315.572834    1      1      
iter:   6  08:54:26         -3.03  -315.571155    1      1      
iter:   7  08:54:27         -3.49  -315.571100    0      1      
iter:   8  08:54:28         -3.55  -315.570975    1      1      
iter:   9  08:54:29         -4.08  -315.570974    0      1      

Converged after 9 iterations.

Dipole moment: (9.145925, -18.647113, 5.447735) |e|*Ang

Energy contributions relative to reference atoms: (reference = -53998.593513)

Kinetic:       +381.035670
Potential:     -391.350789
External:        +0.000000
XC:            -314.592541
Entropy (-ST):   -0.000000
Local:           +9.336686
--------------------------
Free energy:   -315.570974
Extrapolated:  -315.570974

Fermi level: -0.32244

 Band  Eigenvalues  Occupancy
    0    -32.10009    2.00000
    1    -28.25963    2.00000
    2    -27.41469    2.00000
    3    -23.98932    2.00000
    4    -22.86137    2.00000
    5    -22.24495    2.00000
    6    -21.96313    2.00000
    7    -21.79592    2.00000
    8    -21.71007    2.00000
    9    -21.63485    2.00000
   10    -21.47125    2.00000
   11    -21.30885    2.00000
   12    -21.18330    2.00000
   13    -21.15605    2.00000
   14    -21.12090    2.00000
   15    -20.99844    2.00000
   16    -20.91037    2.00000
   17    -20.85601    2.00000
   18    -20.79628    2.00000
   19    -20.55984    2.00000
   20    -20.51156    2.00000
   21    -20.44203    2.00000
   22    -20.22553    2.00000
   23    -20.03082    2.00000
   24    -19.94456    2.00000
   25    -19.89362    2.00000
   26    -19.42451    2.00000
   27    -11.92820    2.00000
   28    -10.78918    2.00000
   29     -9.98102    2.00000
   30     -9.93974    2.00000
   31     -9.77525    2.00000
   32     -9.62245    2.00000
   33     -9.49776    2.00000
   34     -9.43572    2.00000
   35     -9.39466    2.00000
   36     -9.22252    2.00000
   37     -9.15909    2.00000
   38     -9.09516    2.00000
   39     -9.00596    2.00000
   40     -8.94860    2.00000
   41     -8.76744    2.00000
   42     -8.66317    2.00000
   43     -8.56188    2.00000
   44     -8.51294    2.00000
   45     -8.41680    2.00000
   46     -8.26934    2.00000
   47     -8.19264    2.00000
   48     -8.08687    2.00000
   49     -7.93808    2.00000
   50     -7.83074    2.00000
   51     -7.75589    2.00000
   52     -7.62013    2.00000
   53     -7.45868    2.00000
   54     -7.31202    2.00000
   55     -7.01603    2.00000
   56     -6.84669    2.00000
   57     -6.70673    2.00000
   58     -6.57971    2.00000
   59     -6.43282    2.00000
   60     -6.17797    2.00000
   61     -6.13635    2.00000
   62     -5.94781    2.00000
   63     -5.90786    2.00000
   64     -5.76061    2.00000
   65     -5.58766    2.00000
   66     -5.53220    2.00000
   67     -5.42890    2.00000
   68     -5.26741    2.00000
   69     -5.16811    2.00000
   70     -5.10780    2.00000
   71     -4.93768    2.00000
   72     -4.82122    2.00000
   73     -4.58508    2.00000
   74     -4.53233    2.00000
   75     -4.37152    2.00000
   76     -4.29292    2.00000
   77     -4.15781    2.00000
   78     -4.06106    2.00000
   79     -3.90658    2.00000
   80     -3.81514    2.00000
   81     -3.76239    2.00000
   82     -3.72367    2.00000
   83     -3.69637    2.00000
   84     -3.57241    2.00000
   85     -3.52530    2.00000
   86     -3.38419    2.00000
   87     -3.20837    2.00000
   88     -3.16530    2.00000
   89     -3.12649    2.00000
   90     -3.08861    2.00000
   91     -2.98224    2.00000
   92     -2.92287    2.00000
   93     -2.87438    2.00000
   94     -2.83635    2.00000
   95     -2.75037    2.00000
   96     -2.67668    2.00000
   97     -2.53586    2.00000
   98     -2.24774    2.00000
   99      1.59474    0.00000
  100      3.68665    0.00000
  101      3.81027    0.00000
  102      3.91079    0.00000
  103      4.09919    0.00000
  104      4.44629    0.00000
  105      4.89813    0.00000
  106      5.61621    0.00000
  107      5.65639    0.00000
  108      5.80992    0.00000
  109      6.04083    0.00000
  110      6.15957    0.00000
  111      6.23054    0.00000
  112      6.32625    0.00000
  113      6.46208    0.00000
  114      6.52488    0.00000
  115      6.66701    0.00000
  116      6.78498    0.00000
  117      7.09592    0.00000
  118      7.30080    0.00000
  119      7.44561    0.00000
  120      7.91054    0.00000
  121      8.00797    0.00000
  122      8.14677    0.00000

Gap: 3.842 eV
Transition (v -> c):
  (s=0, k=0, n=98, [0.00, 0.00, 0.00]) -> (s=0, k=0, n=99, [0.00, 0.00, 0.00])

Forces in eV/Ang:
  0 O     0.21508    0.03879   -0.45305
  1 O    -0.56063    1.87799   -1.42861
  2 O    -0.20461   -0.77309    0.63926
  3 O    -0.38509   -0.30705    1.14102
  4 O    -0.22351    0.08644    0.81079
  5 O    -2.33946    1.07101    0.05524
  6 O    -0.07367    0.43818    0.96624
  7 O    -0.31867    0.40848    0.74065
  8 O    -0.16592    0.60406   -0.30471
  9 O    -1.80935   -1.46295    1.13624
 10 O    18.84823    2.92647   16.06241
 11 O    -0.30720   -1.19908    1.61424
 12 O    -1.43007   -1.28247    0.78590
 13 O     1.96173   -0.58609    0.12225
 14 O     0.11630   -0.13529    0.26649
 15 O    -1.13969   -0.75582   -0.79153
 16 O   -15.58366    3.43928   -8.89319
 17 O     2.20749   -2.15114    1.69908
 18 O    -0.62369   -1.17664    1.38715
 19 O    -0.88960    1.06051   -0.28155
 20 O    -0.03935    0.65383    2.11771
 21 O    -0.16847   -0.28979   -1.10417
 22 O    -1.38044   -0.16878   -1.29512
 23 O    -0.44523   -0.70409   -0.57657
 24 H    -0.60834   -0.13044    0.61127
 25 H     0.20247    0.15455   -0.10709
 26 H     0.50698   -0.70294    0.93293
 27 H     0.41062   -0.52212    0.56543
 28 H    -0.38315    1.39197   -0.12104
 29 H     0.20632   -0.66621   -0.21488
 30 H     0.04568    0.11431   -0.91572
 31 H    -0.24600    0.31094   -0.16498
 32 H     0.27158   -0.30638   -1.12503
 33 H     0.23658    0.41131    0.65655
 34 H     0.49190   -0.50447   -0.06470
 35 H     1.64210   -0.24292   -0.38419
 36 H     0.35306   -0.42923   -1.05102
 37 H    -0.51722   -0.22380    0.04512
 38 H     0.76262    0.16998   -0.14150
 39 H     0.22434   -0.29726   -0.63114
 40 H    -0.27208   -0.50505    0.25171
 41 H     0.02725   -0.77531    0.20917
 42 H    -0.29579    0.95990   -0.74656
 43 H     1.84954    0.40670   -0.53452
 44 H     1.68718    3.13755   -0.50724
 45 H     1.64599   -0.99150    0.75164
 46 H     0.90035   -0.12670   -0.34538
 47 H    -0.57743    0.98695   -1.04227
 48 H     1.08366   -0.01024   -0.26074
 49 H     0.41357    1.80100   -0.31291
 50 H    -0.73315    0.33349   -0.05477
 51 H    -0.76701    0.13223   -0.02761
 52 H    -1.44825   -0.02409    0.20603
 53 H     0.99127    0.49353   -0.82911
 54 H     0.37841    0.98273    0.07989
 55 H     0.39838   -0.77715    0.75101
 56 H   -13.36003   17.97801  -10.59861
 57 H    -1.00264    1.28807   -2.83529
 58 H    -1.90164    1.52012   -0.99088
 59 H    -0.34393    0.06310   -0.36744
 60 H    -0.05575    0.67978   -1.06924
 61 H     0.43591    0.65739   -0.54065
 62 H    -0.03162   -1.40888    0.09905
 63 H     0.95946    0.33939    0.38260
 64 H     0.39250   -0.38081   -0.81982
 65 H    -0.15463   -0.57444   -1.19399
 66 H     0.18337    0.14407    0.38285
 67 H     0.15901   -0.14144    0.14699
 68 H     0.77835    1.36990    0.53645
 69 H     0.28316   -1.15601    0.26765
 70 H     0.43866    0.28427    0.06768
 71 H     0.54500    1.10341    0.72631
 72 Na    8.18202  -27.70239    5.85209

System changes: positions 

Initializing position-dependent things.

Density initialized from wave functions
       .---------------------.  
      /|                     |  
     / |     H               |  
    /  |     H             H |  
   /   | H  O              O |  
  / H OH       OHH    H      |  
 *    H|      H O HHO  H     |  
 |     O      H   H  OH      |  
 | H  O| H   OH           H  |  
 |    H|  HHO  H    HH O     |  
 |     O  H       O O  HO    |  
 |     .Ha--H-O-H--H--H------.  
 |    /        H   O       H/   
 |   /H  OH  O     H       /    
 |  /  H     H            /     
 | /            HO       /      
 |/  OH            H    /       
 *---------------------*        

Positions:
   0 O      2.813020    5.579987    3.139336    ( 0.0000,  0.0000,  0.0000)
   1 O      3.093246    9.480011    3.080069    ( 0.0000,  0.0000,  0.0000)
   2 O      0.549430    5.696841    0.344069    ( 0.0000,  0.0000,  0.0000)
   3 O      3.936559    2.778577    1.814076    ( 0.0000,  0.0000,  0.0000)
   4 O      6.466973    3.276187    2.500568    ( 0.0000,  0.0000,  0.0000)
   5 O      4.450065    6.047515    5.303783    ( 0.0000,  0.0000,  0.0000)
   6 O      2.310989    9.369670    5.596354    ( 0.0000,  0.0000,  0.0000)
   7 O      5.793875    7.629667    1.604995    ( 0.0000,  0.0000,  0.0000)
   8 O      6.340501    1.350196    9.700588    ( 0.0000,  0.0000,  0.0000)
   9 O      2.588555    7.116258    7.068047    ( 0.0000,  0.0000,  0.0000)
  10 O      1.644300    9.173239    0.850041    ( 0.0000,  0.0000,  0.0000)
  11 O      1.510927    3.966962    6.009790    ( 0.0000,  0.0000,  0.0000)
  12 O      5.084416    2.964581   -0.971617    ( 0.0000,  0.0000,  0.0000)
  13 O      0.263600    5.876247    4.458080    ( 0.0000,  0.0000,  0.0000)
  14 O      1.305161    2.675264   -0.403576    ( 0.0000,  0.0000,  0.0000)
  15 O      5.273554    8.398847    4.143539    ( 0.0000,  0.0000,  0.0000)
  16 O     -0.788550    0.443873   -0.795103    ( 0.0000,  0.0000,  0.0000)
  17 O      6.547589    4.846970    6.310819    ( 0.0000,  0.0000,  0.0000)
  18 O      3.984715    2.647246    5.718610    ( 0.0000,  0.0000,  0.0000)
  19 O     -0.352615   10.603632    5.981893    ( 0.0000,  0.0000,  0.0000)
  20 O     -0.245050    6.808497   -1.914586    ( 0.0000,  0.0000,  0.0000)
  21 O      3.212954    7.273458    0.766778    ( 0.0000,  0.0000,  0.0000)
  22 O      7.730649    5.639635    2.428139    ( 0.0000,  0.0000,  0.0000)
  23 O     -2.702616   10.715806    4.750424    ( 0.0000,  0.0000,  0.0000)
  24 H      1.943405    5.984909    3.407786    ( 0.0000,  0.0000,  0.0000)
  25 H      2.602687    4.620999    3.086251    ( 0.0000,  0.0000,  0.0000)
  26 H      3.306452   10.384788    2.563673    ( 0.0000,  0.0000,  0.0000)
  27 H      2.387041    9.253937    2.412681    ( 0.0000,  0.0000,  0.0000)
  28 H      0.837889    4.719840    0.373961    ( 0.0000,  0.0000,  0.0000)
  29 H     -0.102988    5.820765    1.142344    ( 0.0000,  0.0000,  0.0000)
  30 H      4.096579    3.197693    0.938303    ( 0.0000,  0.0000,  0.0000)
  31 H      4.835467    2.933411    2.246916    ( 0.0000,  0.0000,  0.0000)
  32 H      6.559023    2.498224    1.906892    ( 0.0000,  0.0000,  0.0000)
  33 H      6.433865    2.712109    3.374233    ( 0.0000,  0.0000,  0.0000)
  34 H      3.888045    5.877238    4.481483    ( 0.0000,  0.0000,  0.0000)
  35 H      3.628693    6.292670    5.914696    ( 0.0000,  0.0000,  0.0000)
  36 H      2.480791    9.604860    4.632325    ( 0.0000,  0.0000,  0.0000)
  37 H      1.613930   10.034171    5.808022    ( 0.0000,  0.0000,  0.0000)
  38 H      5.599479    7.845010    2.600631    ( 0.0000,  0.0000,  0.0000)
  39 H      4.841392    7.452622    1.333001    ( 0.0000,  0.0000,  0.0000)
  40 H      7.047781    1.242995    9.036482    ( 0.0000,  0.0000,  0.0000)
  41 H      6.039562    0.435097    9.952488    ( 0.0000,  0.0000,  0.0000)
  42 H      2.712712    7.993932    6.634632    ( 0.0000,  0.0000,  0.0000)
  43 H      1.530571    6.933126    7.099120    ( 0.0000,  0.0000,  0.0000)
  44 H      1.856209   10.040397    0.523091    ( 0.0000,  0.0000,  0.0000)
  45 H      2.337509    8.508805    0.559306    ( 0.0000,  0.0000,  0.0000)
  46 H      2.373162    3.652801    5.690789    ( 0.0000,  0.0000,  0.0000)
  47 H      1.106985    4.572760    5.368643    ( 0.0000,  0.0000,  0.0000)
  48 H      5.673141    3.680395   -1.320940    ( 0.0000,  0.0000,  0.0000)
  49 H      5.462734    2.092674   -0.522718    ( 0.0000,  0.0000,  0.0000)
  50 H      0.106807    6.389606    5.273244    ( 0.0000,  0.0000,  0.0000)
  51 H     -0.455574    5.842244    3.770414    ( 0.0000,  0.0000,  0.0000)
  52 H      0.359446    2.646265   -0.646549    ( 0.0000,  0.0000,  0.0000)
  53 H      1.525516    3.161320   -1.255411    ( 0.0000,  0.0000,  0.0000)
  54 H      4.922349    7.484094    4.553663    ( 0.0000,  0.0000,  0.0000)
  55 H      4.475612    8.860960    3.660270    ( 0.0000,  0.0000,  0.0000)
  56 H     -0.183950    0.691205   -0.507416    ( 0.0000,  0.0000,  0.0000)
  57 H     -0.568587    1.011860   -1.592441    ( 0.0000,  0.0000,  0.0000)
  58 H      5.864628    5.433372    5.999876    ( 0.0000,  0.0000,  0.0000)
  59 H      7.230757    5.408397    6.749952    ( 0.0000,  0.0000,  0.0000)
  60 H      4.364581    2.658761    6.751348    ( 0.0000,  0.0000,  0.0000)
  61 H      3.447746    1.768748    5.837179    ( 0.0000,  0.0000,  0.0000)
  62 H     -1.285002   10.909461    5.599774    ( 0.0000,  0.0000,  0.0000)
  63 H      0.107118   11.473805    5.791680    ( 0.0000,  0.0000,  0.0000)
  64 H     -0.154252    6.307188   -1.013494    ( 0.0000,  0.0000,  0.0000)
  65 H     -0.630105    7.663975   -1.520949    ( 0.0000,  0.0000,  0.0000)
  66 H      3.079265    6.951667   -0.204467    ( 0.0000,  0.0000,  0.0000)
  67 H      2.748456    6.598739    1.341710    ( 0.0000,  0.0000,  0.0000)
  68 H      7.187459    4.713173    2.294222    ( 0.0000,  0.0000,  0.0000)
  69 H      7.083417    6.405852    2.170579    ( 0.0000,  0.0000,  0.0000)
  70 H     -3.628926   11.050011    5.106154    ( 0.0000,  0.0000,  0.0000)
  71 H     -2.959108    9.734116    4.468712    ( 0.0000,  0.0000,  0.0000)
  72 Na     0.510001   -0.019097    0.008430    ( 0.0000,  0.0000,  0.0000)

Unit cell:
           periodic     x           y           z      points  spacing
  1. axis:    yes    8.956370    0.000000    0.000000    44     0.2036
  2. axis:    yes    0.000000    8.956370    0.000000    44     0.2036
  3. axis:    yes    0.000000    0.000000    8.956370    44     0.2036

  Lengths:   8.956370   8.956370   8.956370
  Angles:   90.000000  90.000000  90.000000

Effective grid spacing dv^(1/3) = 0.2036

                     log10-error:    total        iterations:
           time      wfs    density  energy       fermi  poisson
iter:   1  08:54:33          +inf  -318.459430    1      1      
iter:   2  08:54:33         -2.24  -318.432077    1      1      
iter:   3  08:54:34         -2.28  -318.315568    1      1      
iter:   4  08:54:35         -2.55  -318.302362    1      1      
iter:   5  08:54:36         -3.05  -318.301799    0      1      
iter:   6  08:54:37         -3.11  -318.300675    1      1      
iter:   7  08:54:38         -3.59  -318.300597    1      1      
iter:   8  08:54:39         -4.09  -318.300597    0      1      

Converged after 8 iterations.

Dipole moment: (12.187442, -18.323459, 5.025235) |e|*Ang

Energy contributions relative to reference atoms: (reference = -53998.593513)

Kinetic:       +385.531273
Potential:     -396.516464
External:        +0.000000
XC:            -316.582887
Entropy (-ST):   -0.000000
Local:           +9.267482
--------------------------
Free energy:   -318.300597
Extrapolated:  -318.300597

Fermi level: -0.31874

 Band  Eigenvalues  Occupancy
    0    -30.14260    2.00000
    1    -26.49909    2.00000
    2    -25.30099    2.00000
    3    -24.36920    2.00000
    4    -22.82598    2.00000
    5    -22.10029    2.00000
    6    -22.00511    2.00000
    7    -21.97437    2.00000
    8    -21.72551    2.00000
    9    -21.53862    2.00000
   10    -21.46669    2.00000
   11    -21.36066    2.00000
   12    -21.24152    2.00000
   13    -21.14558    2.00000
   14    -21.13784    2.00000
   15    -21.02762    2.00000
   16    -20.99262    2.00000
   17    -20.92085    2.00000
   18    -20.82732    2.00000
   19    -20.64272    2.00000
   20    -20.53483    2.00000
   21    -20.48601    2.00000
   22    -20.26844    2.00000
   23    -20.11832    2.00000
   24    -20.00460    2.00000
   25    -19.94270    2.00000
   26    -19.48075    2.00000
   27    -11.56715    2.00000
   28    -11.33100    2.00000
   29    -10.41262    2.00000
   30    -10.02905    2.00000
   31     -9.72018    2.00000
   32     -9.69076    2.00000
   33     -9.58014    2.00000
   34     -9.49751    2.00000
   35     -9.39886    2.00000
   36     -9.27552    2.00000
   37     -9.27315    2.00000
   38     -9.14572    2.00000
   39     -9.05807    2.00000
   40     -9.03339    2.00000
   41     -8.91635    2.00000
   42     -8.77590    2.00000
   43     -8.64921    2.00000
   44     -8.56526    2.00000
   45     -8.51874    2.00000
   46     -8.39143    2.00000
   47     -8.15949    2.00000
   48     -8.11775    2.00000
   49     -7.98481    2.00000
   50     -7.88215    2.00000
   51     -7.73352    2.00000
   52     -7.64506    2.00000
   53     -7.46174    2.00000
   54     -7.19382    2.00000
   55     -6.99733    2.00000
   56     -6.93580    2.00000
   57     -6.72477    2.00000
   58     -6.64147    2.00000
   59     -6.38188    2.00000
   60     -6.25306    2.00000
   61     -6.15078    2.00000
   62     -5.98203    2.00000
   63     -5.91193    2.00000
   64     -5.78559    2.00000
   65     -5.59407    2.00000
   66     -5.56094    2.00000
   67     -5.43440    2.00000
   68     -5.30488    2.00000
   69     -5.28221    2.00000
   70     -5.12873    2.00000
   71     -4.94761    2.00000
   72     -4.88480    2.00000
   73     -4.60501    2.00000
   74     -4.56725    2.00000
   75     -4.34406    2.00000
   76     -4.28597    2.00000
   77     -4.12403    2.00000
   78     -3.97213    2.00000
   79     -3.88873    2.00000
   80     -3.83924    2.00000
   81     -3.80351    2.00000
   82     -3.79155    2.00000
   83     -3.70023    2.00000
   84     -3.56669    2.00000
   85     -3.53226    2.00000
   86     -3.40249    2.00000
   87     -3.35740    2.00000
   88     -3.16351    2.00000
   89     -3.13592    2.00000
   90     -3.06755    2.00000
   91     -3.01056    2.00000
   92     -2.96145    2.00000
   93     -2.93121    2.00000
   94     -2.83735    2.00000
   95     -2.77886    2.00000
   96     -2.73340    2.00000
   97     -2.57360    2.00000
   98     -2.28778    2.00000
   99      1.64228    0.00000
  100      3.60426    0.00000
  101      3.88031    0.00000
  102      3.97028    0.00000
  103      4.15470    0.00000
  104      4.48435    0.00000
  105      4.86691    0.00000
  106      5.60310    0.00000
  107      5.69493    0.00000
  108      5.86733    0.00000
  109      6.03066    0.00000
  110      6.18486    0.00000
  111      6.24530    0.00000
  112      6.35130    0.00000
  113      6.45224    0.00000
  114      6.56874    0.00000
  115      6.64414    0.00000
  116      6.81575    0.00000
  117      7.07940    0.00000
  118      7.29759    0.00000
  119      7.47593    0.00000
  120      7.93376    0.00000
  121      8.03795    0.00000
  122      8.17086    0.00000

Gap: 3.930 eV
Transition (v -> c):
  (s=0, k=0, n=98, [0.00, 0.00, 0.00]) -> (s=0, k=0, n=99, [0.00, 0.00, 0.00])

Forces in eV/Ang:
  0 O     0.10388    0.56938   -0.33901
  1 O     0.03589    2.05797   -0.73241
  2 O    -0.08723   -0.38647    0.41078
  3 O    -0.62265   -0.16599    0.54076
  4 O    -0.18154    0.07371    1.24062
  5 O    -1.95132    1.09308    0.27427
  6 O     0.05332    0.52609    0.53045
  7 O    -0.07000    0.48401    0.76350
  8 O    -0.82130    0.74077    0.26770
  9 O    -1.68595   -1.27789    1.00082
 10 O    18.70636    3.73459   15.54686
 11 O    -0.74404   -1.15948    1.89345
 12 O    -1.29637   -1.49517    0.90869
 13 O     2.15337   -0.68476    0.14981
 14 O    -0.20715    0.01468   -0.19511
 15 O    -0.92111   -0.77826   -0.66001
 16 O   -35.98320   -7.32340  -18.97381
 17 O     1.80037   -2.00495    1.45710
 18 O    -0.70127   -1.37987    1.48697
 19 O    -0.51572    1.13523   -0.09214
 20 O    -0.23703    0.95492    1.49930
 21 O    -0.11457   -0.39936   -1.03098
 22 O    -1.21277   -0.12565   -1.22495
 23 O    -0.37732   -0.44086   -0.42564
 24 H    -0.46875   -0.09233    0.55663
 25 H     0.17680   -0.39259   -0.16377
 26 H     0.55970   -0.63769    0.89942
 27 H    -0.24026   -0.79608   -0.11492
 28 H    -0.34847    1.04467   -0.03580
 29 H     0.10564   -0.75643   -0.08353
 30 H    -0.07111   -0.06779   -0.58243
 31 H     0.09236    0.33901    0.11349
 32 H     0.31888   -0.49444   -1.32004
 33 H     0.16107    0.64769    0.44122
 34 H     0.29974   -0.61116   -0.41851
 35 H     1.44536   -0.16320   -0.22212
 36 H     0.34155   -0.54492   -0.73035
 37 H    -0.56759   -0.20141    0.12594
 38 H     0.60349    0.13103   -0.23953
 39 H     0.09088   -0.29581   -0.54752
 40 H     0.39058   -0.58516   -0.35495
 41 H    -0.03768   -0.87938    0.23728
 42 H    -0.40556    0.68899   -0.59472
 43 H     1.86980    0.48600   -0.55177
 44 H     1.40432    2.26999   -0.30415
 45 H     1.50454   -0.84697    0.76970
 46 H     1.52615   -0.37936   -0.50836
 47 H    -0.78320    1.18543   -1.17315
 48 H     1.05854    0.05471   -0.30717
 49 H     0.21858    1.92975   -0.36552
 50 H    -0.74330    0.42851    0.10697
 51 H    -0.92826    0.08336   -0.18963
 52 H    -1.04737    0.10742    0.29899
 53 H     0.88831    0.33432   -0.47572
 54 H     0.30337    1.04444    0.02944
 55 H     0.26198   -0.82578    0.67289
 56 H    21.33092   16.88916   10.16040
 57 H    -1.64523    1.03867   -3.54739
 58 H    -1.72801    1.27264   -0.89777
 59 H    -0.08560    0.15954   -0.23232
 60 H    -0.02399    0.74444   -1.15315
 61 H     0.52408    0.78280   -0.58271
 62 H    -0.18258   -1.22279   -0.01751
 63 H     0.71275    0.09980    0.40430
 64 H     0.46611   -0.63530   -0.30367
 65 H    -0.03508   -0.62278   -1.17904
 66 H     0.16196    0.14740    0.36723
 67 H     0.17775   -0.10325    0.11442
 68 H     0.65022    1.24616    0.58423
 69 H     0.21107   -1.04736    0.18582
 70 H     0.42091    0.29808    0.03357
 71 H     0.52407    0.81625    0.62362
 72 Na   -4.84277  -15.71591   -3.93047

System changes: positions 

Initializing position-dependent things.

Density initialized from wave functions
       .---------------------.  
      /|                     |  
     / |     H               |  
    /  |     H             H |  
   /   | H  O              O |  
  / H OH       OHH    H      |  
 *    H|      H O HHO  H     |  
 |     O     H    H  OH      |  
 | H  O| H   O H          H  |  
 |    H|  HHO  H    HH O     |  
 |     O  H       O O  HO    |  
 |     .Ha--H-O-H--H--H------.  
 |    /        H   O       H/   
 |   /H  OH  O     H       /    
 |  /  H     H            /     
 | /            HO       /      
 |/  OH            H    /       
 *---------------------*        

Positions:
   0 O      2.810959    5.576171    3.136997    ( 0.0000,  0.0000,  0.0000)
   1 O      3.090932    9.478780    3.076497    ( 0.0000,  0.0000,  0.0000)
   2 O      0.547145    5.696606    0.344983    ( 0.0000,  0.0000,  0.0000)
   3 O      3.936458    2.778909    1.817663    ( 0.0000,  0.0000,  0.0000)
   4 O      6.462922    3.274901    2.500023    ( 0.0000,  0.0000,  0.0000)
   5 O      4.447596    6.046692    5.305708    ( 0.0000,  0.0000,  0.0000)
   6 O      2.311217    9.367797    5.595359    ( 0.0000,  0.0000,  0.0000)
   7 O      5.791688    7.631033    1.604996    ( 0.0000,  0.0000,  0.0000)
   8 O      6.341199    1.351277    9.700076    ( 0.0000,  0.0000,  0.0000)
   9 O      2.590457    7.118586    7.072517    ( 0.0000,  0.0000,  0.0000)
  10 O      1.655151    9.176010    0.860706    ( 0.0000,  0.0000,  0.0000)
  11 O      1.513524    3.964866    6.011789    ( 0.0000,  0.0000,  0.0000)
  12 O      5.082619    2.961041   -0.972046    ( 0.0000,  0.0000,  0.0000)
  13 O      0.260497    5.877034    4.456253    ( 0.0000,  0.0000,  0.0000)
  14 O      1.308276    2.672965   -0.405322    ( 0.0000,  0.0000,  0.0000)
  15 O      5.275874    8.396927    4.144044    ( 0.0000,  0.0000,  0.0000)
  16 O     -0.799515    0.444061   -0.803246    ( 0.0000,  0.0000,  0.0000)
  17 O      6.550773    4.846360    6.309771    ( 0.0000,  0.0000,  0.0000)
  18 O      3.988904    2.649666    5.718139    ( 0.0000,  0.0000,  0.0000)
  19 O     -0.355798   10.603964    5.976761    ( 0.0000,  0.0000,  0.0000)
  20 O     -0.245135    6.807650   -1.907389    ( 0.0000,  0.0000,  0.0000)
  21 O      3.214539    7.274208    0.766643    ( 0.0000,  0.0000,  0.0000)
  22 O      7.730340    5.643948    2.427458    ( 0.0000,  0.0000,  0.0000)
  23 O     -2.705531   10.714916    4.747600    ( 0.0000,  0.0000,  0.0000)
  24 H      1.933158    5.971120    3.411451    ( 0.0000,  0.0000,  0.0000)
  25 H      2.596463    4.628659    3.086710    ( 0.0000,  0.0000,  0.0000)
  26 H      3.299692   10.381729    2.566810    ( 0.0000,  0.0000,  0.0000)
  27 H      2.390344    9.259431    2.432717    ( 0.0000,  0.0000,  0.0000)
  28 H      0.842838    4.737055    0.379712    ( 0.0000,  0.0000,  0.0000)
  29 H     -0.088259    5.844152    1.139501    ( 0.0000,  0.0000,  0.0000)
  30 H      4.099275    3.196617    0.930815    ( 0.0000,  0.0000,  0.0000)
  31 H      4.832121    2.933662    2.232149    ( 0.0000,  0.0000,  0.0000)
  32 H      6.555366    2.504013    1.906032    ( 0.0000,  0.0000,  0.0000)
  33 H      6.449651    2.690683    3.374492    ( 0.0000,  0.0000,  0.0000)
  34 H      3.891619    5.887011    4.490935    ( 0.0000,  0.0000,  0.0000)
  35 H      3.639408    6.287506    5.914233    ( 0.0000,  0.0000,  0.0000)
  36 H      2.485618    9.599388    4.618441    ( 0.0000,  0.0000,  0.0000)
  37 H      1.624008   10.044703    5.794322    ( 0.0000,  0.0000,  0.0000)
  38 H      5.625138    7.851877    2.605648    ( 0.0000,  0.0000,  0.0000)
  39 H      4.840872    7.462309    1.329566    ( 0.0000,  0.0000,  0.0000)
  40 H      7.015812    1.253876    9.032507    ( 0.0000,  0.0000,  0.0000)
  41 H      6.051335    0.433342    9.957897    ( 0.0000,  0.0000,  0.0000)
  42 H      2.722442    8.000693    6.631395    ( 0.0000,  0.0000,  0.0000)
  43 H      1.539916    6.933874    7.109283    ( 0.0000,  0.0000,  0.0000)
  44 H      1.868411   10.055822    0.512930    ( 0.0000,  0.0000,  0.0000)
  45 H      2.341521    8.506151    0.556621    ( 0.0000,  0.0000,  0.0000)
  46 H      2.366335    3.661168    5.688459    ( 0.0000,  0.0000,  0.0000)
  47 H      1.122592    4.572525    5.366721    ( 0.0000,  0.0000,  0.0000)
  48 H      5.676912    3.682626   -1.302285    ( 0.0000,  0.0000,  0.0000)
  49 H      5.476046    2.097927   -0.512275    ( 0.0000,  0.0000,  0.0000)
  50 H      0.104906    6.393287    5.266280    ( 0.0000,  0.0000,  0.0000)
  51 H     -0.455830    5.853483    3.770762    ( 0.0000,  0.0000,  0.0000)
  52 H      0.354775    2.649171   -0.659939    ( 0.0000,  0.0000,  0.0000)
  53 H      1.537882    3.155093   -1.270347    ( 0.0000,  0.0000,  0.0000)
  54 H      4.934350    7.482612    4.557317    ( 0.0000,  0.0000,  0.0000)
  55 H      4.486662    8.868959    3.673718    ( 0.0000,  0.0000,  0.0000)
  56 H     -0.295273    0.893859   -0.591713    ( 0.0000,  0.0000,  0.0000)
  57 H     -0.569770    1.020650   -1.613812    ( 0.0000,  0.0000,  0.0000)
  58 H      5.862107    5.451346    6.011243    ( 0.0000,  0.0000,  0.0000)
  59 H      7.219854    5.407975    6.757170    ( 0.0000,  0.0000,  0.0000)
  60 H      4.361711    2.649525    6.754518    ( 0.0000,  0.0000,  0.0000)
  61 H      3.448136    1.769243    5.831361    ( 0.0000,  0.0000,  0.0000)
  62 H     -1.285810   10.897002    5.606297    ( 0.0000,  0.0000,  0.0000)
  63 H      0.127170   11.472375    5.790019    ( 0.0000,  0.0000,  0.0000)
  64 H     -0.163918    6.308856   -1.032314    ( 0.0000,  0.0000,  0.0000)
  65 H     -0.649645    7.651664   -1.518802    ( 0.0000,  0.0000,  0.0000)
  66 H      3.083725    6.950889   -0.201560    ( 0.0000,  0.0000,  0.0000)
  67 H      2.752099    6.599061    1.344321    ( 0.0000,  0.0000,  0.0000)
  68 H      7.203718    4.728513    2.280267    ( 0.0000,  0.0000,  0.0000)
  69 H      7.082152    6.402206    2.181440    ( 0.0000,  0.0000,  0.0000)
  70 H     -3.627995   11.056922    5.111063    ( 0.0000,  0.0000,  0.0000)
  71 H     -2.964364    9.747145    4.477480    ( 0.0000,  0.0000,  0.0000)
  72 Na     0.514182   -0.030460    0.011851    ( 0.0000,  0.0000,  0.0000)

Unit cell:
           periodic     x           y           z      points  spacing
  1. axis:    yes    8.956370    0.000000    0.000000    44     0.2036
  2. axis:    yes    0.000000    8.956370    0.000000    44     0.2036
  3. axis:    yes    0.000000    0.000000    8.956370    44     0.2036

  Lengths:   8.956370   8.956370   8.956370
  Angles:   90.000000  90.000000  90.000000

Effective grid spacing dv^(1/3) = 0.2036

                     log10-error:    total        iterations:
           time      wfs    density  energy       fermi  poisson
iter:   1  08:54:43          +inf  -320.118289    2      1      
iter:   2  08:54:44         -2.33  -320.101823    1      1      
iter:   3  08:54:45         -2.36  -320.037801    1      1      
iter:   4  08:54:45         -2.64  -320.026695    1      1      
iter:   5  08:54:46         -3.21  -320.026614    1      1      
iter:   6  08:54:47         -3.30  -320.026145    0      1      
iter:   7  08:54:48         -3.70  -320.026106    0      1      
iter:   8  08:54:50         -4.19  -320.026100    0      1      

Converged after 8 iterations.

Dipole moment: (11.840401, -18.020438, 4.796421) |e|*Ang

Energy contributions relative to reference atoms: (reference = -53998.593513)

Kinetic:       +382.940029
Potential:     -395.429867
External:        +0.000000
XC:            -316.786881
Entropy (-ST):   -0.000000
Local:           +9.250620
--------------------------
Free energy:   -320.026100
Extrapolated:  -320.026100

Fermi level: -0.33093

 Band  Eigenvalues  Occupancy
    0    -28.88091    2.00000
    1    -25.97896    2.00000
    2    -24.39887    2.00000
    3    -24.02757    2.00000
    4    -22.77834    2.00000
    5    -22.18523    2.00000
    6    -22.12467    2.00000
    7    -21.95576    2.00000
    8    -21.75227    2.00000
    9    -21.59275    2.00000
   10    -21.51936    2.00000
   11    -21.38520    2.00000
   12    -21.33202    2.00000
   13    -21.30663    2.00000
   14    -21.13348    2.00000
   15    -21.01185    2.00000
   16    -20.95570    2.00000
   17    -20.91945    2.00000
   18    -20.74040    2.00000
   19    -20.72823    2.00000
   20    -20.60127    2.00000
   21    -20.46393    2.00000
   22    -20.29749    2.00000
   23    -20.16656    2.00000
   24    -20.07303    2.00000
   25    -20.00062    2.00000
   26    -19.54372    2.00000
   27    -11.19923    2.00000
   28    -10.92253    2.00000
   29    -10.53080    2.00000
   30    -10.01148    2.00000
   31     -9.78395    2.00000
   32     -9.68303    2.00000
   33     -9.60390    2.00000
   34     -9.47518    2.00000
   35     -9.42547    2.00000
   36     -9.38931    2.00000
   37     -9.31739    2.00000
   38     -9.22464    2.00000
   39     -9.16259    2.00000
   40     -9.04544    2.00000
   41     -8.96428    2.00000
   42     -8.83425    2.00000
   43     -8.74140    2.00000
   44     -8.60547    2.00000
   45     -8.50758    2.00000
   46     -8.37106    2.00000
   47     -8.16686    2.00000
   48     -8.15248    2.00000
   49     -8.04634    2.00000
   50     -7.93493    2.00000
   51     -7.75895    2.00000
   52     -7.67003    2.00000
   53     -7.35914    2.00000
   54     -7.13190    2.00000
   55     -6.96994    2.00000
   56     -6.93888    2.00000
   57     -6.70003    2.00000
   58     -6.58887    2.00000
   59     -6.33822    2.00000
   60     -6.22674    2.00000
   61     -6.17159    2.00000
   62     -5.99800    2.00000
   63     -5.87689    2.00000
   64     -5.82013    2.00000
   65     -5.59864    2.00000
   66     -5.57650    2.00000
   67     -5.43230    2.00000
   68     -5.38419    2.00000
   69     -5.24444    2.00000
   70     -5.14940    2.00000
   71     -4.97744    2.00000
   72     -4.91779    2.00000
   73     -4.63023    2.00000
   74     -4.60055    2.00000
   75     -4.36904    2.00000
   76     -4.25848    2.00000
   77     -4.15249    2.00000
   78     -4.08503    2.00000
   79     -3.91619    2.00000
   80     -3.84212    2.00000
   81     -3.82812    2.00000
   82     -3.71839    2.00000
   83     -3.66825    2.00000
   84     -3.55739    2.00000
   85     -3.51152    2.00000
   86     -3.50212    2.00000
   87     -3.39189    2.00000
   88     -3.18147    2.00000
   89     -3.14436    2.00000
   90     -3.07126    2.00000
   91     -3.01706    2.00000
   92     -2.99246    2.00000
   93     -2.95412    2.00000
   94     -2.82613    2.00000
   95     -2.81126    2.00000
   96     -2.77367    2.00000
   97     -2.61172    2.00000
   98     -2.30861    2.00000
   99      1.63882    0.00000
  100      3.47386    0.00000
  101      3.90577    0.00000
  102      4.00253    0.00000
  103      4.21709    0.00000
  104      4.51612    0.00000
  105      4.84054    0.00000
  106      5.53900    0.00000
  107      5.72305    0.00000
  108      5.90084    0.00000
  109      6.01897    0.00000
  110      6.17616    0.00000
  111      6.24141    0.00000
  112      6.36074    0.00000
  113      6.44245    0.00000
  114      6.54925    0.00000
  115      6.66018    0.00000
  116      6.83670    0.00000
  117      7.06599    0.00000
  118      7.29550    0.00000
  119      7.47806    0.00000
  120      7.95813    0.00000
  121      8.04859    0.00000
  122      8.19065    0.00000

Gap: 3.947 eV
Transition (v -> c):
  (s=0, k=0, n=98, [0.00, 0.00, 0.00]) -> (s=0, k=0, n=99, [0.00, 0.00, 0.00])

Forces in eV/Ang:
  0 O    -0.05449    1.08752   -0.23497
  1 O     0.67900    2.18677    0.02947
  2 O    -0.01423    0.11059    0.17736
  3 O    -0.87767   -0.02171   -0.07190
  4 O    -0.11688    0.01333    1.60678
  5 O    -1.48233    1.07952    0.44871
  6 O     0.17269    0.62500    0.08539
  7 O     0.16224    0.53935    0.78104
  8 O    -1.61449    0.81814    1.06414
  9 O    -1.44498   -0.98329    0.82082
 10 O    18.16941    4.63272   14.57436
 11 O    -1.13865   -1.03232    1.98348
 12 O    -1.12807   -1.51201    0.95574
 13 O     2.26577   -0.75631    0.15423
 14 O    -0.52779    0.19771   -0.67740
 15 O    -0.65404   -0.79899   -0.51311
 16 O   -32.80428  -18.24415  -16.65470
 17 O     1.15746   -1.65988    1.11773
 18 O    -0.73634   -1.49558    1.52239
 19 O    -0.09008    1.24845    0.05898
 20 O    -0.37549    1.17391    0.77347
 21 O    -0.07923   -0.47396   -0.92320
 22 O    -0.94514   -0.02725   -1.11520
 23 O    -0.28783   -0.09351   -0.26241
 24 H    -0.28062   -0.07033    0.49314
 25 H     0.14854   -0.93564   -0.21609
 26 H     0.61671   -0.52079    0.82735
 27 H    -0.93383   -1.05350   -0.77132
 28 H    -0.23878    0.55025    0.05617
 29 H    -0.01721   -0.82763    0.07287
 30 H    -0.18368   -0.25926   -0.22343
 31 H     0.46102    0.37258    0.39986
 32 H     0.33825   -0.62097   -1.45429
 33 H     0.07496    0.87680    0.21219
 34 H     0.09578   -0.70619   -0.76668
 35 H     1.17265   -0.06835   -0.00944
 36 H     0.30769   -0.65806   -0.37764
 37 H    -0.59240   -0.20346    0.18380
 38 H     0.42539    0.08700   -0.34322
 39 H    -0.00791   -0.28485   -0.44171
 40 H     1.15223   -0.78145   -1.15118
 41 H    -0.06857   -0.87207    0.21617
 42 H    -0.52135    0.35090   -0.41018
 43 H     1.77924    0.52644   -0.56342
 44 H     1.07862    1.27144   -0.00666
 45 H     1.35894   -0.69633    0.80046
 46 H     2.01925   -0.58219   -0.63346
 47 H    -0.90238    1.25408   -1.17086
 48 H     0.95773    0.04393   -0.31897
 49 H     0.05560    1.93939   -0.39363
 50 H    -0.73580    0.49969    0.24718
 51 H    -1.01683    0.03503   -0.29782
 52 H    -0.54512    0.26054    0.41881
 53 H     0.75863    0.15562   -0.08737
 54 H     0.21052    1.06443   -0.01135
 55 H     0.08869   -0.84225    0.56357
 56 H    23.73610   24.40644   12.47949
 57 H    -2.12405    0.27623   -4.71817
 58 H    -1.31446    0.80019   -0.71666
 59 H     0.18804    0.27794   -0.08724
 60 H     0.01660    0.80408   -1.19149
 61 H     0.57065    0.84116   -0.60447
 62 H    -0.34342   -1.01736   -0.14204
 63 H     0.42387   -0.14789    0.42341
 64 H     0.52317   -0.94639    0.29510
 65 H     0.01083   -0.53793   -1.12443
 66 H     0.13886    0.12992    0.30752
 67 H     0.19885   -0.06851    0.08593
 68 H     0.49064    1.00882    0.60653
 69 H     0.08574   -0.86755    0.07995
 70 H     0.40454    0.31001    0.00300
 71 H     0.46942    0.44244    0.49313
 72 Na   -8.96481  -11.58909   -6.91421

System changes: positions 

Initializing position-dependent things.

Density initialized from wave functions
       .---------------------.  
      /|                     |  
     / |     H               |  
    /  |     H            HH |  
   /   | H  O              O |  
  / H OH       OHH    H      |  
 *    H|      H O HHO  H     |  
 |     O     H    H  OH      |  
 | H  O| H   O H          H  |  
 |    H|  HHO   H   HH O     |  
 |     O  H       O O  HO    |  
 |     .Ha--H-O-H--H--H------.  
 |    /        H   O       H/   
 |   /H  OH  O     H       /    
 |  /  H     H            /     
 | /            HO       /      
 |/  OH            H    /       
 *---------------------*        

Positions:
   0 O      2.808905    5.572547    3.134641    ( 0.0000,  0.0000,  0.0000)
   1 O      3.088737    9.477886    3.072955    ( 0.0000,  0.0000,  0.0000)
   2 O      0.544874    5.696389    0.345917    ( 0.0000,  0.0000,  0.0000)
[...]

  Lengths:   8.956370   8.956370   8.956370
  Angles:   90.000000  90.000000  90.000000

Effective grid spacing dv^(1/3) = 0.2036

                     log10-error:    total        iterations:
           time      wfs    density  energy       fermi  poisson
iter:   1  09:03:12          +inf  -330.351477    3      1      
iter:   2  09:03:13         -2.63  -330.332985    3      1      
iter:   3  09:03:13         -2.74  -330.322001    2      1      
iter:   4  09:03:14         -2.83  -330.329822    2      1      
iter:   5  09:03:15         -2.94  -330.319648    2      1      
iter:   6  09:03:16         -3.04  -330.316349    3      1      
iter:   7  09:03:17         -3.32  -330.323023    2      1      
iter:   8  09:03:18         -3.44  -330.318394    2      1      
iter:   9  09:03:19         -3.81  -330.319760    2      1      
iter:  10  09:03:20         -3.93  -330.319462    2      1      
iter:  11  09:03:21         -4.11  -330.319515    2      1      

Converged after 11 iterations.

Dipole moment: (7.149644, -5.233147, 10.033680) |e|*Ang

Energy contributions relative to reference atoms: (reference = -53998.593513)

Kinetic:       +272.293113
Potential:     -315.367042
External:        +0.000000
XC:            -296.610147
Entropy (-ST):   -0.131580
Local:           +9.430351
--------------------------
Free energy:   -330.385305
Extrapolated:  -330.319515

Fermi level: -1.49034

 Band  Eigenvalues  Occupancy
    0    -24.10186    2.00000
    1    -24.08712    2.00000
    2    -24.00562    2.00000
    3    -22.62703    2.00000
    4    -22.54551    2.00000
    5    -22.34201    2.00000
    6    -22.03433    2.00000
    7    -21.85079    2.00000
    8    -21.70305    2.00000
    9    -21.57309    2.00000
   10    -21.52005    2.00000
   11    -21.49569    2.00000
   12    -21.34727    2.00000
   13    -21.25340    2.00000
   14    -21.16686    2.00000
   15    -21.07473    2.00000
   16    -20.87159    2.00000
   17    -20.65879    2.00000
   18    -20.64689    2.00000
   19    -20.56401    2.00000
   20    -20.50928    2.00000
   21    -20.37102    2.00000
   22    -20.05985    2.00000
   23    -19.80483    2.00000
   24    -19.70592    2.00000
   25    -19.18642    2.00000
   26    -17.76709    2.00000
   27    -10.72839    2.00000
   28    -10.57896    2.00000
   29    -10.43872    2.00000
   30    -10.26430    2.00000
   31     -9.84754    2.00000
   32     -9.70152    2.00000
   33     -9.48245    2.00000
   34     -9.45561    2.00000
   35     -9.39462    2.00000
   36     -9.32878    2.00000
   37     -9.28568    2.00000
   38     -9.18528    2.00000
   39     -9.13217    2.00000
   40     -9.03037    2.00000
   41     -8.83678    2.00000
   42     -8.71758    2.00000
   43     -8.60448    2.00000
   44     -8.47682    2.00000
   45     -8.37627    2.00000
   46     -8.29365    2.00000
   47     -8.20406    2.00000
   48     -8.13202    2.00000
   49     -7.87992    2.00000
   50     -7.79998    2.00000
   51     -7.69475    2.00000
   52     -7.11817    2.00000
   53     -6.86686    2.00000
   54     -6.81198    2.00000
   55     -6.66636    2.00000
   56     -6.61232    2.00000
   57     -6.54858    2.00000
   58     -6.34762    2.00000
   59     -6.18534    2.00000
   60     -6.12676    2.00000
   61     -6.02379    2.00000
   62     -5.97029    2.00000
   63     -5.79154    2.00000
   64     -5.60330    2.00000
   65     -5.52442    2.00000
   66     -5.50905    2.00000
   67     -5.33774    2.00000
   68     -5.14948    2.00000
   69     -4.98911    2.00000
   70     -4.93891    2.00000
   71     -4.85101    2.00000
   72     -4.76202    2.00000
   73     -4.62340    2.00000
   74     -4.58268    2.00000
   75     -4.38493    2.00000
   76     -4.37354    2.00000
   77     -4.11515    2.00000
   78     -4.04520    2.00000
   79     -3.96357    2.00000
   80     -3.92241    2.00000
   81     -3.86201    2.00000
   82     -3.58937    2.00000
   83     -3.44584    2.00000
   84     -3.31745    2.00000
   85     -3.19516    2.00000
   86     -3.14070    2.00000
   87     -3.10970    2.00000
   88     -3.03251    2.00000
   89     -2.99724    2.00000
   90     -2.94471    2.00000
   91     -2.78840    2.00000
   92     -2.73793    1.99999
   93     -2.56890    1.99996
   94     -2.51893    1.99993
   95     -2.38789    1.99975
   96     -2.30975    1.99945
   97     -1.86925    1.95577
   98     -1.75377    1.86607
   99     -1.25842    0.17909
  100      2.24878    0.00000
  101      3.75941    0.00000
  102      4.18474    0.00000
  103      4.27261    0.00000
  104      4.44696    0.00000
  105      4.68821    0.00000
  106      4.98056    0.00000
  107      5.18930    0.00000
  108      5.68949    0.00000
  109      5.87212    0.00000
  110      5.94365    0.00000
  111      6.13242    0.00000
  112      6.29709    0.00000
  113      6.46542    0.00000
  114      6.52872    0.00000
  115      6.56523    0.00000
  116      6.98986    0.00000
  117      7.03090    0.00000
  118      7.26740    0.00000
  119      7.37407    0.00000
  120      7.53208    0.00000
  121      7.72714    0.00000
  122      7.95929    0.00000

Gap: 0.495 eV
Transition (v -> c):
  (s=0, k=0, n=98, [0.00, 0.00, 0.00]) -> (s=0, k=0, n=99, [0.00, 0.00, 0.00])

Forces in eV/Ang:
  0 O     0.39548   -0.02664    0.05823
  1 O     0.98739   -0.34873    2.86762
  2 O     0.31546   -0.76825    0.42010
  3 O    -0.49558    0.26836    1.06297
  4 O     0.68412    0.42806   -0.68570
  5 O    -0.65377   -0.43238    0.28861
  6 O     0.00008   -0.05062   -0.03520
  7 O     0.08610   -0.04611    0.32437
  8 O     0.32065   -0.30391   -0.27946
  9 O    -0.60712    0.00144   -0.46873
 10 O    -2.45036   -1.18396   -3.20556
 11 O     0.26901    0.08013   -0.20010
 12 O    -1.07459   -0.37141    0.54334
 13 O     0.26805   -0.42320    0.19470
 14 O    -0.69602   -0.05961    0.73166
 15 O    -0.23475    0.43658   -0.41829
 16 O     0.65018   -0.73911   -0.31465
 17 O     1.03838    2.86758    2.21619
 18 O    -0.54107   -0.15259   -0.25554
 19 O     1.53012    0.26143   -0.36643
 20 O    -1.69562   -0.65439    0.64882
 21 O     0.54758   -0.44697    0.21724
 22 O    -0.75630   -0.69187   -0.40733
 23 O     0.45673    0.33213    0.00993
 24 H    -0.15504   -0.29033   -0.20366
 25 H    -0.14782    0.29980    0.07107
 26 H     0.36803    0.29949    0.29439
 27 H     0.77964    0.25220    0.84337
 28 H    -0.42293    0.71531   -0.49428
 29 H    -0.29864   -0.03061    0.15087
 30 H     0.24528    0.18300   -0.48154
 31 H    -0.10630   -0.11378   -0.33989
 32 H    -0.25309    0.12324    0.17660
 33 H    -0.23646   -0.29229    0.45804
 34 H     0.52342    0.26119    0.41741
 35 H     0.50819   -0.01440   -0.34587
 36 H     0.21696    0.36011    0.37556
 37 H    -0.08087   -0.28076    0.16515
 38 H     0.39409   -0.13627    0.32500
 39 H     0.22157   -0.30388   -0.55578
 40 H    -0.01851    0.20511   -0.36268
 41 H    -0.09401    0.44517   -0.22277
 42 H    -0.03731    0.12862   -0.03539
 43 H     0.51778   -0.05818   -0.03129
 44 H     0.19840    0.95802   -0.47821
 45 H    -0.24642    0.19951   -0.29766
 46 H    -0.79257    0.07253   -0.00219
 47 H     0.44945   -0.33579    0.06824
 48 H     0.65748    0.06426    0.20652
 49 H     0.54187    0.04053   -0.13929
 50 H     0.07213    0.06773   -0.24093
 51 H     0.39464    0.40822    0.24552
 52 H     0.63141   -0.25921    0.16808
 53 H    -0.03113    0.33344   -0.54929
 54 H    -0.16436   -0.65657    0.27301
 55 H    -0.02386    0.25744   -0.00480
 56 H    -0.84673   -0.85250   -1.24170
 57 H    -0.88378   -0.39552    1.52540
 58 H     0.73204   -0.02996   -0.18526
 59 H    -0.93784   -1.39055   -1.41201
 60 H     0.10363    0.11483    0.29188
 61 H    -0.25207    0.11944   -0.07308
 62 H    -1.33474   -0.24780   -0.49045
 63 H     0.52182    0.31553    0.17509
 64 H     0.25699    0.31368   -0.37136
 65 H     0.71398    0.35783   -0.05510
 66 H    -0.10125    0.06398    0.06452
 67 H    -0.14126   -0.07501   -0.01752
 68 H    -0.18312    0.20648   -0.12974
 69 H     0.24276    0.04436    0.04080
 70 H    -0.02693    0.00677   -0.03741
 71 H     0.15299   -0.06586   -0.24027
 72 Na   -0.01237    0.18491    0.17911

System changes: positions 

Initializing position-dependent things.

Density initialized from wave functions
       .Na-------------------.  
      /|                     |  
     / |     H               |  
    /  |    O             HH |  
   /   |  H  H        H    O |  
  / H O|      HOHH     H     |  
 *     H        O HHO      H |  
 |     O  H   H   H O        |  
 | H  O|     OH     H H      |  
 |     | H H    H    H O  H  |  
 |   H O   H  H   O O H O    |  
 |     .H----HO-H--H--H------.  
 |    /        H   O      H /   
 |   /OH OH O      H       /    
 |  /  H     H            /     
 | /   O        HO       /      
 |/                     /       
 *---------------------*        

Positions:
   0 O      2.731006    5.525164    3.095291    ( 0.0000,  0.0000,  0.0000)
   1 O      3.113842    9.487398    3.149750    ( 0.0000,  0.0000,  0.0000)
   2 O      0.506752    5.719149    0.368430    ( 0.0000,  0.0000,  0.0000)
   3 O      3.912323    2.806565    1.880640    ( 0.0000,  0.0000,  0.0000)
   4 O      6.403058    3.243200    2.503687    ( 0.0000,  0.0000,  0.0000)
   5 O      4.410253    6.055505    5.339712    ( 0.0000,  0.0000,  0.0000)
   6 O      2.341035    9.356659    5.555844    ( 0.0000,  0.0000,  0.0000)
   7 O      5.803794    7.674493    1.614301    ( 0.0000,  0.0000,  0.0000)
   8 O      6.343877    1.360559    9.678959    ( 0.0000,  0.0000,  0.0000)
   9 O      2.645259    7.173614    7.163094    ( 0.0000,  0.0000,  0.0000)
  10 O      2.160430    9.372973    1.223704    ( 0.0000,  0.0000,  0.0000)
  11 O      1.560264    3.907375    6.037492    ( 0.0000,  0.0000,  0.0000)
  12 O      5.051796    2.908546   -0.940122    ( 0.0000,  0.0000,  0.0000)
  13 O      0.254650    5.887870    4.439476    ( 0.0000,  0.0000,  0.0000)
  14 O      1.376787    2.648860   -0.467764    ( 0.0000,  0.0000,  0.0000)
  15 O      5.333045    8.351291    4.151783    ( 0.0000,  0.0000,  0.0000)
  16 O     -1.275290    0.485925   -1.138941    ( 0.0000,  0.0000,  0.0000)
  17 O      6.618119    4.840592    6.324846    ( 0.0000,  0.0000,  0.0000)
  18 O      4.040109    2.685761    5.707306    ( 0.0000,  0.0000,  0.0000)
  19 O     -0.412063   10.630401    5.842107    ( 0.0000,  0.0000,  0.0000)
  20 O     -0.268779    6.804341   -1.791361    ( 0.0000,  0.0000,  0.0000)
  21 O      3.267784    7.247661    0.753810    ( 0.0000,  0.0000,  0.0000)
  22 O      7.715991    5.749527    2.382063    ( 0.0000,  0.0000,  0.0000)
  23 O     -2.720315   10.729142    4.707930    ( 0.0000,  0.0000,  0.0000)
  24 H      1.877401    5.682969    3.609888    ( 0.0000,  0.0000,  0.0000)
  25 H      2.832657    4.551362    2.878523    ( 0.0000,  0.0000,  0.0000)
  26 H      3.457730   10.341139    2.722490    ( 0.0000,  0.0000,  0.0000)
  27 H      2.322078    9.354708    2.452991    ( 0.0000,  0.0000,  0.0000)
  28 H      0.978235    4.823172    0.458353    ( 0.0000,  0.0000,  0.0000)
  29 H     -0.149777    5.735383    1.165573    ( 0.0000,  0.0000,  0.0000)
  30 H      3.962876    2.910363    0.904106    ( 0.0000,  0.0000,  0.0000)
  31 H      4.862387    3.076063    2.226970    ( 0.0000,  0.0000,  0.0000)
  32 H      6.591213    2.502008    1.769068    ( 0.0000,  0.0000,  0.0000)
  33 H      6.500060    2.692491    3.336173    ( 0.0000,  0.0000,  0.0000)
  34 H      3.858753    5.691017    4.538309    ( 0.0000,  0.0000,  0.0000)
  35 H      3.678231    6.302962    6.028862    ( 0.0000,  0.0000,  0.0000)
  36 H      2.567387    9.324524    4.513638    ( 0.0000,  0.0000,  0.0000)
  37 H      1.490218    9.878719    5.551206    ( 0.0000,  0.0000,  0.0000)
  38 H      5.664135    7.978845    2.568966    ( 0.0000,  0.0000,  0.0000)
  39 H      4.842540    7.531432    1.355635    ( 0.0000,  0.0000,  0.0000)
  40 H      7.048508    0.958005    8.754968    ( 0.0000,  0.0000,  0.0000)
  41 H      6.066612    0.478446   10.086778    ( 0.0000,  0.0000,  0.0000)
  42 H      2.615784    8.037254    6.597468    ( 0.0000,  0.0000,  0.0000)
  43 H      1.686770    6.854746    7.050572    ( 0.0000,  0.0000,  0.0000)
  44 H      2.299530   10.192729    0.723890    ( 0.0000,  0.0000,  0.0000)
  45 H      2.820654    8.586447    1.003011    ( 0.0000,  0.0000,  0.0000)
  46 H      2.517096    3.700472    5.729484    ( 0.0000,  0.0000,  0.0000)
  47 H      1.107731    4.589153    5.448817    ( 0.0000,  0.0000,  0.0000)
  48 H      5.668146    3.615928   -1.193824    ( 0.0000,  0.0000,  0.0000)
  49 H      5.473807    2.222044   -0.273476    ( 0.0000,  0.0000,  0.0000)
  50 H     -0.029564    6.496097    5.164133    ( 0.0000,  0.0000,  0.0000)
  51 H     -0.499921    5.805947    3.734145    ( 0.0000,  0.0000,  0.0000)
  52 H      0.403637    2.698357   -0.681498    ( 0.0000,  0.0000,  0.0000)
  53 H      1.766574    3.065752   -1.272936    ( 0.0000,  0.0000,  0.0000)
  54 H      5.079630    7.570843    4.716286    ( 0.0000,  0.0000,  0.0000)
  55 H      4.429531    8.682276    3.782184    ( 0.0000,  0.0000,  0.0000)
  56 H     -1.843270    5.553950   -1.295782    ( 0.0000,  0.0000,  0.0000)
  57 H     -0.870972    1.052209   -2.008614    ( 0.0000,  0.0000,  0.0000)
  58 H      5.644454    5.290021    6.073408    ( 0.0000,  0.0000,  0.0000)
  59 H      7.324344    5.677158    6.348262    ( 0.0000,  0.0000,  0.0000)
  60 H      4.388519    2.663453    6.672966    ( 0.0000,  0.0000,  0.0000)
  61 H      3.563007    1.789955    5.653816    ( 0.0000,  0.0000,  0.0000)
  62 H     -1.223300   10.836574    5.297092    ( 0.0000,  0.0000,  0.0000)
  63 H      0.056418   11.498167    5.919002    ( 0.0000,  0.0000,  0.0000)
  64 H     -0.079376    6.236430   -0.872405    ( 0.0000,  0.0000,  0.0000)
  65 H     -0.980139    7.543551   -1.577734    ( 0.0000,  0.0000,  0.0000)
  66 H      3.071862    7.004519   -0.216882    ( 0.0000,  0.0000,  0.0000)
  67 H      2.967084    6.551570    1.409581    ( 0.0000,  0.0000,  0.0000)
  68 H      7.326517    4.782493    2.439572    ( 0.0000,  0.0000,  0.0000)
  69 H      6.906990    6.335880    2.123211    ( 0.0000,  0.0000,  0.0000)
  70 H     -3.530106   11.199780    5.115854    ( 0.0000,  0.0000,  0.0000)
  71 H     -3.027246    9.757501    4.665689    ( 0.0000,  0.0000,  0.0000)
  72 Na     0.450377   -0.408739   -0.028383    ( 0.0000,  0.0000,  0.0000)

Unit cell:
           periodic     x           y           z      points  spacing
  1. axis:    yes    8.956370    0.000000    0.000000    44     0.2036
  2. axis:    yes    0.000000    8.956370    0.000000    44     0.2036
  3. axis:    yes    0.000000    0.000000    8.956370    44     0.2036

  Lengths:   8.956370   8.956370   8.956370
  Angles:   90.000000  90.000000  90.000000

Effective grid spacing dv^(1/3) = 0.2036

                     log10-error:    total        iterations:
           time      wfs    density  energy       fermi  poisson
iter:   1  09:03:25          +inf  -330.532439    3      1      
iter:   2  09:03:25         -2.64  -330.514744    2      1      
iter:   3  09:03:26         -2.75  -330.502229    2      1      
iter:   4  09:03:27         -2.84  -330.512205    2      1      
iter:   5  09:03:28         -2.93  -330.505798    2      1      
iter:   6  09:03:29         -3.00  -330.496064    3      1      
iter:   7  09:03:30         -3.32  -330.501648    2      1      
iter:   8  09:03:31         -3.45  -330.495286    2      1      
iter:   9  09:03:32         -3.49  -330.500291    2      1      
iter:  10  09:03:33         -3.89  -330.499360    2      1      
iter:  11  09:03:34         -4.09  -330.499673    2      1      

Converged after 11 iterations.

Dipole moment: (7.198512, -5.100803, 10.064039) |e|*Ang

Energy contributions relative to reference atoms: (reference = -53998.593513)

Kinetic:       +270.772712
Potential:     -314.342493
External:        +0.000000
XC:            -296.298013
Entropy (-ST):   -0.124537
Local:           +9.430389
--------------------------
Free energy:   -330.561942
Extrapolated:  -330.499673

Fermi level: -1.43786

 Band  Eigenvalues  Occupancy
    0    -24.08980    2.00000
    1    -24.07529    2.00000
    2    -23.99266    2.00000
    3    -22.66014    2.00000
    4    -22.53734    2.00000
    5    -22.33486    2.00000
    6    -22.01207    2.00000
    7    -21.78258    2.00000
    8    -21.67331    2.00000
    9    -21.55437    2.00000
   10    -21.51117    2.00000
   11    -21.49688    2.00000
   12    -21.34406    2.00000
   13    -21.28055    2.00000
   14    -21.15445    2.00000
   15    -21.05420    2.00000
   16    -20.88929    2.00000
   17    -20.65314    2.00000
   18    -20.64419    2.00000
   19    -20.55349    2.00000
   20    -20.53368    2.00000
   21    -20.40679    2.00000
   22    -20.04040    2.00000
   23    -19.79646    2.00000
   24    -19.71312    2.00000
   25    -19.18059    2.00000
   26    -17.70000    2.00000
   27    -10.72413    2.00000
   28    -10.53771    2.00000
   29    -10.36110    2.00000
   30    -10.23114    2.00000
   31     -9.87294    2.00000
   32     -9.72017    2.00000
   33     -9.49501    2.00000
   34     -9.43834    2.00000
   35     -9.37693    2.00000
   36     -9.32460    2.00000
   37     -9.28220    2.00000
   38     -9.18328    2.00000
   39     -9.12685    2.00000
   40     -9.02318    2.00000
   41     -8.81275    2.00000
   42     -8.72504    2.00000
   43     -8.60723    2.00000
   44     -8.46127    2.00000
   45     -8.34657    2.00000
   46     -8.27005    2.00000
   47     -8.16156    2.00000
   48     -8.11242    2.00000
   49     -7.87620    2.00000
   50     -7.77481    2.00000
   51     -7.70742    2.00000
   52     -7.09856    2.00000
   53     -6.91106    2.00000
   54     -6.82305    2.00000
   55     -6.67476    2.00000
   56     -6.62200    2.00000
   57     -6.58356    2.00000
   58     -6.37236    2.00000
   59     -6.19923    2.00000
   60     -6.13890    2.00000
   61     -6.03281    2.00000
   62     -5.97853    2.00000
   63     -5.78908    2.00000
   64     -5.58498    2.00000
   65     -5.52959    2.00000
   66     -5.50066    2.00000
   67     -5.32103    2.00000
   68     -5.13913    2.00000
   69     -4.99414    2.00000
   70     -4.93323    2.00000
   71     -4.85208    2.00000
   72     -4.75737    2.00000
   73     -4.64379    2.00000
   74     -4.57508    2.00000
   75     -4.38464    2.00000
   76     -4.38045    2.00000
   77     -4.12533    2.00000
   78     -4.03440    2.00000
   79     -3.95387    2.00000
   80     -3.92145    2.00000
   81     -3.86026    2.00000
   82     -3.59142    2.00000
   83     -3.46268    2.00000
   84     -3.30986    2.00000
   85     -3.21502    2.00000
   86     -3.15963    2.00000
   87     -3.09997    2.00000
   88     -3.04310    2.00000
   89     -2.99180    2.00000
   90     -2.94165    2.00000
   91     -2.77862    2.00000
   92     -2.73227    2.00000
   93     -2.56997    1.99998
   94     -2.51211    1.99996
   95     -2.37994    1.99984
   96     -2.32927    1.99973
   97     -1.82966    1.96101
   98     -1.70669    1.87266
   99     -1.19818    0.16683
  100      2.24192    0.00000
  101      3.73974    0.00000
  102      4.18794    0.00000
  103      4.28535    0.00000
  104      4.42716    0.00000
  105      4.68463    0.00000
  106      5.00076    0.00000
  107      5.15440    0.00000
  108      5.69194    0.00000
  109      5.87329    0.00000
  110      5.95364    0.00000
  111      6.14804    0.00000
  112      6.29149    0.00000
  113      6.48466    0.00000
  114      6.52111    0.00000
  115      6.56819    0.00000
  116      7.00122    0.00000
  117      7.03005    0.00000
  118      7.27996    0.00000
  119      7.37081    0.00000
  120      7.52710    0.00000
  121      7.73694    0.00000
  122      7.96598    0.00000

Gap: 0.509 eV
Transition (v -> c):
  (s=0, k=0, n=98, [0.00, 0.00, 0.00]) -> (s=0, k=0, n=99, [0.00, 0.00, 0.00])
