
  ___ ___ ___ _ _ _  
 |   |   |_  | | | | 
 | | | | | . | | | | 
 |__ |  _|___|_____|  19.8.1
 |___|_|             

User:   ericlin@hebbe03-1
Date:   Wed Feb  5 22:58:36 2020
Arch:   x86_64
Pid:    9096
Python: 3.7.2
gpaw:   /apps/Hebbe7/software/MPI/intel/2019.1.144-GCC-8.2.0-2.31.1/impi/2018.4.274/GPAW/19.8.1-Python-3.7.2/lib/python3.7/site-packages/gpaw
_gpaw:  /apps/Hebbe7/software/MPI/intel/2019.1.144-GCC-8.2.0-2.31.1/impi/2018.4.274/GPAW/19.8.1-Python-3.7.2/bin/
        gpaw-python
ase:    /apps/Hebbe7/software/MPI/intel/2019.1.144-GCC-8.2.0-2.31.1/impi/2018.4.274/ASE/3.18.0-Python-3.7.2/lib/python3.7/site-packages/ase (version 3.18.0)
numpy:  /apps/Hebbe7/software/MPI/intel/2019.1.144-GCC-8.2.0-2.31.1/impi/2018.4.274/SciPy-bundle/2019.03/lib/python3.7/site-packages/numpy (version 1.16.2)
scipy:  /apps/Hebbe7/software/MPI/intel/2019.1.144-GCC-8.2.0-2.31.1/impi/2018.4.274/SciPy-bundle/2019.03/lib/python3.7/site-packages/scipy (version 1.2.1)
libxc:  4.3.4
units:  Angstrom and eV
cores:  20

Input parameters:
  basis: dzp
  charge: 1
  mode: lcao
  symmetry: {point_group: False}
  xc: PBE

System changes: positions, numbers, cell, pbc, initial_charges, initial_magmoms 

Initialize ...

O-setup:
  name: Oxygen
  id: 32ecd46bf208036f09c70b0ec9a88b78
  Z: 8
  valence: 6
  core: 2
  charge: 0.0
  file: /apps/Common/Core/GPAW-setups/0.9.20000/O.PBE.gz
  compensation charges: gauss, rc=0.21, lmax=2
  cutoffs: 1.17(filt), 0.83(core),
  valence states:
                energy  radius
    2s(2.00)   -23.961   0.688
    2p(4.00)    -9.029   0.598
    *s           3.251   0.688
    *p          18.182   0.598
    *d           0.000   0.619

  LCAO basis set for O:
    Name: dzp
    File: /apps/Common/Core/GPAW-setups/0.9.20000/O.dzp.basis.gz
    Number of radial functions: 5
    Number of spherical harmonics: 13
      l=0, rc=4.3438 Bohr: 2s-sz confined orbital
      l=1, rc=5.3906 Bohr: 2p-sz confined orbital
      l=0, rc=2.2969 Bohr: 2s-dz split-valence wave
      l=1, rc=2.8906 Bohr: 2p-dz split-valence wave
      l=2, rc=5.3906 Bohr: d-type Gaussian polarization

H-setup:
  name: Hydrogen
  id: d65de229564ff8ea4db303e23b6d1ecf
  Z: 1
  valence: 1
  core: 0
  charge: 0.0
  file: /apps/Common/Core/GPAW-setups/0.9.20000/H.PBE.gz
  compensation charges: gauss, rc=0.15, lmax=2
  cutoffs: 0.85(filt), 0.53(core),
  valence states:
                energy  radius
    1s(1.00)    -6.494   0.476
    *s          20.717   0.476
    *p           0.000   0.476

  LCAO basis set for H:
    Name: dzp
    File: /apps/Common/Core/GPAW-setups/0.9.20000/H.dzp.basis.gz
    Number of radial functions: 3
    Number of spherical harmonics: 5
      l=0, rc=6.4219 Bohr: 1s-sz confined orbital
      l=0, rc=3.6094 Bohr: 1s-dz split-valence wave
      l=1, rc=6.4219 Bohr: p-type Gaussian polarization

Na-setup:
  name: Sodium
  id: d7ecbc49209718622bcbe287195dca2a
  Z: 11
  valence: 7
  core: 4
  charge: 0.0
  file: /apps/Common/Core/GPAW-setups/0.9.20000/Na.PBE.gz
  compensation charges: gauss, rc=0.37, lmax=2
  cutoffs: 2.17(filt), 2.59(core),
  valence states:
                energy  radius
    3s(1.00)    -2.744   1.201
    2p(6.00)   -28.672   1.217
    3p(0.00)    -0.743   1.217
    *s          24.468   1.201
    *d           0.000   1.238

  LCAO basis set for Na:
    Name: dzp
    File: /apps/Common/Core/GPAW-setups/0.9.20000/Na.dzp.basis.gz
    Number of radial functions: 7
    Number of spherical harmonics: 17
      l=0, rc=11.4062 Bohr: 3s-sz confined orbital
      l=1, rc=3.6719 Bohr: 2p-sz confined orbital
      l=1, rc=15.9375 Bohr: 3p-sz confined orbital
      l=0, rc=6.9531 Bohr: 3s-dz split-valence wave
      l=1, rc=2.4219 Bohr: 2p-dz split-valence wave
      l=1, rc=10.0469 Bohr: 3p-dz split-valence wave
      l=1, rc=11.4062 Bohr: p-type Gaussian polarization

Reference energy: -53998.593513

Spin-paired calculation

Occupation numbers:
  Fermi-Dirac: width=0.1000 eV

Convergence criteria:
  Maximum total energy change: 0.0005 eV / electron
  Maximum integral of absolute density change: 0.0001 electrons
  Maximum integral of absolute eigenstate change: 4e-08 eV^2
  Maximum number of iterations: 333

Symmetries present (total): 1

  ( 1  0  0)
  ( 0  1  0)
  ( 0  0  1)

1 k-point (Gamma)
1 k-point in the irreducible part of the Brillouin zone
       k-points in crystal coordinates                weights
   0:     0.00000000    0.00000000    0.00000000          1/1

Wave functions: LCAO
  Diagonalizer: Serial LAPACK
  Atomic Correction: dense with blas
  Datatype: float
 

Eigensolver
   LCAO using direct dense diagonalizer 

Densities:
  Coarse grid: 44*44*44 grid
  Fine grid: 88*88*88 grid
  Total Charge: 1.000000 

Density mixing:
  Method: separate
  Backend: pulay
  Linear mixing parameter: 0.05
  Mixing with 5 old densities
  Damping of long wave oscillations: 50 

Hamiltonian:
  XC and Coulomb potentials evaluated on a 88*88*88 grid
  Using the PBE Exchange-Correlation functional
  Interpolation: tri-quintic (5. degree polynomial)
  Poisson solver: FastPoissonSolver using
    6*3+1=19 point O(h^6) finite-difference Laplacian stencil;
    FFT axes: [0, 1, 2];
    FST axes: [].
 

XC parameters: PBE with 2 nearest neighbor stencil

Memory estimate:
  Process memory now: 101.15 MiB
  Calculator: 12.06 MiB
    Density: 2.83 MiB
      Arrays: 0.86 MiB
      Localized functions: 1.63 MiB
      Mixer: 0.33 MiB
    Hamiltonian: 0.68 MiB
      Arrays: 0.56 MiB
      XC: 0.00 MiB
      Poisson: 0.00 MiB
      vbar: 0.12 MiB
    Wavefunctions: 8.54 MiB
      C [qnM]: 0.53 MiB
      S, T [2 x qmm]: 4.94 MiB
      P [aqMi]: 0.02 MiB
      BasisFunctions: 3.06 MiB
      Eigensolver: 0.00 MiB

Total number of cores used: 20
Domain decomposition: 5 x 2 x 2

Number of atoms: 73
Number of atomic orbitals: 569
Number of bands in calculation: 123
Bands to converge: occupied states only
Number of valence electrons: 198

... initialized

Initializing position-dependent things.

Density initialized from atomic densities
       .---------------------.  
      /|                     |  
     / |     H               |  
    /  |                   H |  
   /   | H  OH             O |  
  / H OH       OHH    H      |  
 *H   H|      H O HHO        |  
 |     O      H   H  OH      |  
 | H  O| H   OH           H  |  
 |    H|  HHO  H    HH O     |  
 |     O   H      O O  HO    |  
 |     .H---H-O-H--H--H------.  
 |    /        H   O      H /   
 |   /H  OH  O     H       /    
 |  /  H     H            /     
 | /             O       /      
 |/  OH         H  H    /       
 *Na-------------------*        

Positions:
   0 O      2.819396    5.591711    3.146020    ( 0.0000,  0.0000,  0.0000)
   1 O      3.099917    9.485477    3.089785    ( 0.0000,  0.0000,  0.0000)
   2 O      0.556171    5.696983    0.341817    ( 0.0000,  0.0000,  0.0000)
   3 O      3.936436    2.777345    1.804092    ( 0.0000,  0.0000,  0.0000)
   4 O      6.479010    3.280136    2.503079    ( 0.0000,  0.0000,  0.0000)
   5 O      4.455530    6.050972    5.298088    ( 0.0000,  0.0000,  0.0000)
   6 O      2.310272    9.375748    5.600094    ( 0.0000,  0.0000,  0.0000)
   7 O      5.800264    7.625937    1.605669    ( 0.0000,  0.0000,  0.0000)
   8 O      6.338016    1.347520    9.702072    ( 0.0000,  0.0000,  0.0000)
   9 O      2.581227    7.107987    7.055536    ( 0.0000,  0.0000,  0.0000)
  10 O      1.628563    9.167816    0.832191    ( 0.0000,  0.0000,  0.0000)
  11 O      1.502673    3.972226    6.005292    ( 0.0000,  0.0000,  0.0000)
  12 O      5.088587    2.974060   -0.969587    ( 0.0000,  0.0000,  0.0000)
  13 O      0.274792    5.873312    4.463709    ( 0.0000,  0.0000,  0.0000)
  14 O      1.295751    2.682126   -0.398219    ( 0.0000,  0.0000,  0.0000)
  15 O      5.265598    8.403950    4.141343    ( 0.0000,  0.0000,  0.0000)
  16 O     -0.778106    0.441675   -0.782765    ( 0.0000,  0.0000,  0.0000)
  17 O      6.539808    4.846939    6.315423    ( 0.0000,  0.0000,  0.0000)
  18 O      3.971487    2.638825    5.721310    ( 0.0000,  0.0000,  0.0000)
  19 O     -0.343688   10.603621    5.997180    ( 0.0000,  0.0000,  0.0000)
  20 O     -0.244886    6.811734   -1.934602    ( 0.0000,  0.0000,  0.0000)
  21 O      3.208031    7.270903    0.766212    ( 0.0000,  0.0000,  0.0000)
  22 O      7.730394    5.626485    2.429047    ( 0.0000,  0.0000,  0.0000)
  23 O     -2.694197   10.717943    4.758473    ( 0.0000,  0.0000,  0.0000)
  24 H      1.966372    6.024747    3.405222    ( 0.0000,  0.0000,  0.0000)
  25 H      2.624229    4.597310    3.083039    ( 0.0000,  0.0000,  0.0000)
  26 H      3.334396   10.384345    2.567373    ( 0.0000,  0.0000,  0.0000)
  27 H      2.379554    9.228452    2.356907    ( 0.0000,  0.0000,  0.0000)
  28 H      0.817734    4.685958    0.355311    ( 0.0000,  0.0000,  0.0000)
  29 H     -0.144963    5.740228    1.148496    ( 0.0000,  0.0000,  0.0000)
  30 H      4.088526    3.201615    0.949509    ( 0.0000,  0.0000,  0.0000)
  31 H      4.843799    2.937269    2.290479    ( 0.0000,  0.0000,  0.0000)
  32 H      6.574140    2.475488    1.892463    ( 0.0000,  0.0000,  0.0000)
  33 H      6.389243    2.783887    3.381727    ( 0.0000,  0.0000,  0.0000)
  34 H      3.883341    5.839987    4.450245    ( 0.0000,  0.0000,  0.0000)
  35 H      3.618827    6.305185    5.911467    ( 0.0000,  0.0000,  0.0000)
  36 H      2.471214    9.614647    4.660812    ( 0.0000,  0.0000,  0.0000)
  37 H      1.575885    9.999238    5.850364    ( 0.0000,  0.0000,  0.0000)
  38 H      5.532248    7.826546    2.582969    ( 0.0000,  0.0000,  0.0000)
  39 H      4.845581    7.419149    1.334738    ( 0.0000,  0.0000,  0.0000)
  40 H      7.143854    1.202327    9.048474    ( 0.0000,  0.0000,  0.0000)
  41 H      6.004198    0.428965    9.939264    ( 0.0000,  0.0000,  0.0000)
  42 H      2.678557    7.985743    6.634532    ( 0.0000,  0.0000,  0.0000)
  43 H      1.528824    6.937033    7.060695    ( 0.0000,  0.0000,  0.0000)
  44 H      1.842081   10.033868    0.547738    ( 0.0000,  0.0000,  0.0000)
  45 H      2.348385    8.503293    0.578365    ( 0.0000,  0.0000,  0.0000)
  46 H      2.409669    3.624558    5.692078    ( 0.0000,  0.0000,  0.0000)
  47 H      1.050754    4.588423    5.359046    ( 0.0000,  0.0000,  0.0000)
  48 H      5.677060    3.673700   -1.381131    ( 0.0000,  0.0000,  0.0000)
  49 H      5.427648    2.103071   -0.558916    ( 0.0000,  0.0000,  0.0000)
  50 H      0.101987    6.383731    5.294245    ( 0.0000,  0.0000,  0.0000)
  51 H     -0.466506    5.809962    3.768242    ( 0.0000,  0.0000,  0.0000)
  52 H      0.355029    2.637903   -0.602675    ( 0.0000,  0.0000,  0.0000)
  53 H      1.501826    3.186353   -1.220363    ( 0.0000,  0.0000,  0.0000)
  54 H      4.891182    7.502940    4.543566    ( 0.0000,  0.0000,  0.0000)
  55 H      4.447301    8.825490    3.630088    ( 0.0000,  0.0000,  0.0000)
  56 H      0.161297    0.362959   -0.292342    ( 0.0000,  0.0000,  0.0000)
  57 H     -0.583601    1.001960   -1.573087    ( 0.0000,  0.0000,  0.0000)
  58 H      5.846414    5.399174    5.952066    ( 0.0000,  0.0000,  0.0000)
  59 H      7.260046    5.411124    6.723603    ( 0.0000,  0.0000,  0.0000)
  60 H      4.372608    2.696673    6.726093    ( 0.0000,  0.0000,  0.0000)
  61 H      3.453167    1.777143    5.846797    ( 0.0000,  0.0000,  0.0000)
  62 H     -1.283815   10.927743    5.580953    ( 0.0000,  0.0000,  0.0000)
  63 H      0.059086   11.481749    5.802292    ( 0.0000,  0.0000,  0.0000)
  64 H     -0.119126    6.295339   -0.965805    ( 0.0000,  0.0000,  0.0000)
  65 H     -0.572851    7.692809   -1.544432    ( 0.0000,  0.0000,  0.0000)
  66 H      3.068325    6.956068   -0.207916    ( 0.0000,  0.0000,  0.0000)
  67 H      2.739850    6.595922    1.335783    ( 0.0000,  0.0000,  0.0000)
  68 H      7.148827    4.685738    2.344262    ( 0.0000,  0.0000,  0.0000)
  69 H      7.090848    6.400919    2.141208    ( 0.0000,  0.0000,  0.0000)
  70 H     -3.625543   11.033312    5.092160    ( 0.0000,  0.0000,  0.0000)
  71 H     -2.935576    9.709105    4.452144    ( 0.0000,  0.0000,  0.0000)
  72 Na     0.500000    0.000000    0.000000    ( 0.0000,  0.0000,  0.0000)

Unit cell:
           periodic     x           y           z      points  spacing
  1. axis:    yes    8.956370    0.000000    0.000000    44     0.2036
  2. axis:    yes    0.000000    8.956370    0.000000    44     0.2036
  3. axis:    yes    0.000000    0.000000    8.956370    44     0.2036

  Lengths:   8.956370   8.956370   8.956370
  Angles:   90.000000  90.000000  90.000000

Effective grid spacing dv^(1/3) = 0.2036

                     log10-error:    total        iterations:
           time      wfs    density  energy       fermi  poisson
iter:   1  22:58:38          +inf  -321.670094    0      1      
iter:   2  22:58:39         -0.86  -316.906818    0      1      
iter:   3  22:58:39         -0.90  -303.320150    12     1      
iter:   4  22:58:40         -1.25  -303.534172    2      1      
iter:   5  22:58:40         -1.34  -302.896989    6      1      
iter:   6  22:58:41         -2.27  -302.863472    1      1      
iter:   7  22:58:42         -2.38  -302.862746    2      1      
iter:   8  22:58:42         -2.60  -302.856234    2      1      
iter:   9  22:58:43         -3.22  -302.856020    1      1      
iter:  10  22:58:43         -3.30  -302.855748    1      1      
iter:  11  22:58:44         -3.72  -302.855737    0      1      
iter:  12  22:58:44         -3.77  -302.855695    1      1      
iter:  13  22:58:45         -4.37  -302.855694    0      1      

Converged after 13 iterations.

Dipole moment: (7.305074, -18.810332, 5.791308) |e|*Ang

Energy contributions relative to reference atoms: (reference = -53998.593513)

Kinetic:       +382.323339
Potential:     -382.337898
External:        +0.000000
XC:            -312.287779
Entropy (-ST):   -0.000000
Local:           +9.446644
--------------------------
Free energy:   -302.855694
Extrapolated:  -302.855694

Fermi level: -0.35206

 Band  Eigenvalues  Occupancy
    0    -37.44155    2.00000
    1    -33.14528    2.00000
    2    -32.53137    2.00000
    3    -23.91087    2.00000
    4    -22.91254    2.00000
    5    -22.21444    2.00000
    6    -22.01325    2.00000
    7    -21.74864    2.00000
    8    -21.64946    2.00000
    9    -21.45338    2.00000
   10    -21.40141    2.00000
   11    -21.32072    2.00000
   12    -21.12252    2.00000
   13    -21.02712    2.00000
   14    -20.97367    2.00000
   15    -20.88086    2.00000
   16    -20.81744    2.00000
   17    -20.65548    2.00000
   18    -20.53948    2.00000
   19    -20.49416    2.00000
   20    -20.35368    2.00000
   21    -20.30471    2.00000
   22    -20.13079    2.00000
   23    -19.93871    2.00000
   24    -19.84461    2.00000
   25    -19.77613    2.00000
   26    -19.39474    2.00000
   27    -12.53086    2.00000
   28    -10.00919    2.00000
   29     -9.96557    2.00000
   30     -9.83014    2.00000
   31     -9.59375    2.00000
   32     -9.52162    2.00000
   33     -9.43137    2.00000
   34     -9.28826    2.00000
   35     -9.19752    2.00000
   36     -9.17495    2.00000
   37     -9.08845    2.00000
   38     -8.96249    2.00000
   39     -8.92140    2.00000
   40     -8.74773    2.00000
   41     -8.69278    2.00000
   42     -8.63724    2.00000
   43     -8.50527    2.00000
   44     -8.44153    2.00000
   45     -8.41843    2.00000
   46     -8.14952    2.00000
   47     -8.07364    2.00000
   48     -7.96674    2.00000
   49     -7.88686    2.00000
   50     -7.81338    2.00000
   51     -7.63457    2.00000
   52     -7.48443    2.00000
   53     -7.45400    2.00000
   54     -7.18524    2.00000
   55     -6.92185    2.00000
   56     -6.74104    2.00000
   57     -6.57417    2.00000
   58     -6.54308    2.00000
   59     -6.32415    2.00000
   60     -6.13285    2.00000
   61     -6.04599    2.00000
   62     -5.92434    2.00000
   63     -5.81975    2.00000
   64     -5.70028    2.00000
   65     -5.56914    2.00000
   66     -5.47322    2.00000
   67     -5.46397    2.00000
   68     -5.28928    2.00000
   69     -5.07437    2.00000
   70     -4.95759    2.00000
   71     -4.87999    2.00000
   72     -4.78717    2.00000
   73     -4.61936    2.00000
   74     -4.51323    2.00000
   75     -4.37517    2.00000
   76     -4.31049    2.00000
   77     -4.16472    2.00000
   78     -4.03685    2.00000
   79     -3.96133    2.00000
   80     -3.82616    2.00000
   81     -3.71238    2.00000
   82     -3.59038    2.00000
   83     -3.55060    2.00000
   84     -3.50643    2.00000
   85     -3.44487    2.00000
   86     -3.32548    2.00000
   87     -3.19335    2.00000
   88     -3.13825    2.00000
   89     -3.09732    2.00000
   90     -2.96184    2.00000
   91     -2.91941    2.00000
   92     -2.87474    2.00000
   93     -2.81250    2.00000
   94     -2.76794    2.00000
   95     -2.72693    2.00000
   96     -2.62102    2.00000
   97     -2.49850    2.00000
   98     -2.15462    2.00000
   99      1.44558    0.00000
  100      3.63770    0.00000
  101      3.69914    0.00000
  102      3.78713    0.00000
  103      4.03922    0.00000
  104      4.39001    0.00000
  105      4.91303    0.00000
  106      5.54235    0.00000
  107      5.56542    0.00000
  108      5.72404    0.00000
  109      6.00758    0.00000
  110      6.06795    0.00000
  111      6.19893    0.00000
  112      6.31039    0.00000
  113      6.41583    0.00000
  114      6.46732    0.00000
  115      6.64558    0.00000
  116      6.75912    0.00000
  117      7.12082    0.00000
  118      7.29536    0.00000
  119      7.37246    0.00000
  120      7.86096    0.00000
  121      7.92369    0.00000
  122      8.08654    0.00000

Gap: 3.600 eV
Transition (v -> c):
  (s=0, k=0, n=98, [0.00, 0.00, 0.00]) -> (s=0, k=0, n=99, [0.00, 0.00, 0.00])

Forces in eV/Ang:
  0 O     0.32206   -0.73209   -0.62102
  1 O    -1.35663    1.41480   -2.34550
  2 O    -0.54872   -1.26956    1.02002
  3 O    -0.00916   -0.46036    2.02026
  4 O    -0.26569    0.00713   -0.01681
  5 O    -2.76123    0.93049   -0.39907
  6 O    -0.32068    0.34331    1.63789
  7 O    -0.78647    0.23298    0.67703
  8 O     0.68887    0.20280   -0.81673
  9 O    -1.70133   -1.36810    1.15825
 10 O    19.04329    2.42010   16.05669
 11 O     0.36037   -1.07727    0.81516
 12 O    -1.56646   -0.35988    0.27711
 13 O     1.44472   -0.40887    0.05012
 14 O     0.36945   -0.34946    0.83144
 15 O    -1.37357   -0.70185   -0.96843
 16 O   -10.67985    4.35256   -6.28075
 17 O     2.05300   -1.80954    1.65622
 18 O    -0.36653   -0.54364    1.02233
 19 O    -1.38587    0.98037   -0.62480
 20 O     0.35150    0.09171    2.81389
 21 O    -0.25274   -0.08658   -1.11332
 22 O    -1.46491   -0.24173   -1.32546
 23 O    -0.46341   -0.99850   -0.77773
 24 H    -0.72244   -0.29977    0.66775
 25 H     0.20346    1.02085   -0.01178
 26 H     0.39864   -0.70074    0.88671
 27 H     1.28265   -0.07740    1.55335
 28 H    -0.31778    1.72396   -0.25870
 29 H     0.39116   -0.38864   -0.42889
 30 H     0.24352    0.33600   -1.29064
 31 H    -0.75330    0.25671   -0.68868
 32 H     0.11911    0.12418   -0.59502
 33 H     0.36663    0.00571    0.89607
 34 H     0.76126   -0.27635    0.52203
 35 H     1.75999   -0.34176   -0.54079
 36 H     0.33601   -0.22145   -1.47591
 37 H    -0.31757   -0.32749   -0.17177
 38 H     1.05502    0.24391    0.02644
 39 H     0.48963   -0.27034   -0.74772
 40 H    -1.30187   -0.43386    0.84583
 41 H     0.23177   -0.36614    0.13476
 42 H    -0.11182    1.10310   -0.84788
 43 H     1.52798    0.17581   -0.45469
 44 H     1.85493    3.41490   -0.49019
 45 H     1.72516   -1.07183    0.77395
 46 H    -0.32840    0.39377   -0.03487
 47 H     0.01788    0.37480   -0.51789
 48 H     0.93984   -0.27221   -0.06015
 49 H     0.83109    1.21621   -0.09837
 50 H    -0.66789    0.12693   -0.37582
 51 H    -0.33298    0.19752    0.33834
 52 H    -1.67774   -0.11477    0.09332
 53 H     1.01078    0.66591   -1.24667
 54 H     0.49957    0.76406    0.21036
 55 H     0.58348   -0.56211    0.84507
 56 H   -37.51969   35.90761  -30.65424
 57 H    -0.79798    1.18397   -2.35193
 58 H    -1.39555    1.27252   -0.76445
 59 H    -0.73086   -0.02908   -0.54350
 60 H    -0.10390    0.49482   -0.79921
 61 H     0.13656    0.19153   -0.40700
 62 H     0.15274   -1.68198    0.29542
 63 H     1.29589    0.67456    0.36075
 64 H     0.23095   -0.00781   -1.54213
 65 H    -0.40433   -0.40377   -1.10296
 66 H     0.19941    0.10219    0.30269
 67 H     0.13621   -0.18849    0.18869
 68 H     0.88115    1.35453    0.41090
 69 H     0.29549   -1.16390    0.36791
 70 H     0.41053    0.26656    0.15180
 71 H     0.49826    1.44066    0.84059
 72 Na   26.93506  -46.33224   22.93390

System changes: positions 

Initializing position-dependent things.

Density initialized from wave functions
       .---------------------.  
      /|                     |  
     / |     H               |  
    /  |                   H |  
   /   | H  OH             O |  
  / H OH       OHH    H      |  
 *H   H|      H O HHO        |  
 |     O      H   H  OH      |  
 | H  O| H   OH           H  |  
 |    H|  HHO  H    HH O     |  
 |     O   H      O O  HO    |  
 |     .Ha--H-O-H--H--H------.  
 |    /        H   O      H /   
 |   /H  OH  O     H       /    
 |  /  H     H            /     
 | /             O       /      
 |/  OH         H  H    /       
 *---------------------*        

Positions:
   0 O      2.818959    5.590946    3.145597    ( 0.0000,  0.0000,  0.0000)
   1 O      3.099515    9.485043    3.089219    ( 0.0000,  0.0000,  0.0000)
   2 O      0.555737    5.697018    0.341931    ( 0.0000,  0.0000,  0.0000)
   3 O      3.936452    2.777444    1.804689    ( 0.0000,  0.0000,  0.0000)
   4 O      6.478217    3.279870    2.502896    ( 0.0000,  0.0000,  0.0000)
   5 O      4.455275    6.050699    5.298476    ( 0.0000,  0.0000,  0.0000)
   6 O      2.310329    9.375326    5.599788    ( 0.0000,  0.0000,  0.0000)
   7 O      5.799862    7.626172    1.605594    ( 0.0000,  0.0000,  0.0000)
   8 O      6.338169    1.347681    9.701999    ( 0.0000,  0.0000,  0.0000)
   9 O      2.581791    7.108600    7.056321    ( 0.0000,  0.0000,  0.0000)
  10 O      1.628817    9.168071    0.832703    ( 0.0000,  0.0000,  0.0000)
  11 O      1.503220    3.971923    6.005541    ( 0.0000,  0.0000,  0.0000)
  12 O      5.088373    2.973463   -0.969745    ( 0.0000,  0.0000,  0.0000)
  13 O      0.273973    5.873528    4.463330    ( 0.0000,  0.0000,  0.0000)
  14 O      1.296366    2.681680   -0.398602    ( 0.0000,  0.0000,  0.0000)
  15 O      5.266183    8.403640    4.141527    ( 0.0000,  0.0000,  0.0000)
  16 O     -0.778303    0.441647   -0.783298    ( 0.0000,  0.0000,  0.0000)
  17 O      6.540234    4.847027    6.315044    ( 0.0000,  0.0000,  0.0000)
  18 O      3.972391    2.639423    5.721079    ( 0.0000,  0.0000,  0.0000)
  19 O     -0.344234   10.603579    5.996181    ( 0.0000,  0.0000,  0.0000)
  20 O     -0.244905    6.811504   -1.933373    ( 0.0000,  0.0000,  0.0000)
  21 O      3.208369    7.271081    0.766297    ( 0.0000,  0.0000,  0.0000)
  22 O      7.730472    5.627371    2.429042    ( 0.0000,  0.0000,  0.0000)
  23 O     -2.694738   10.717837    4.757966    ( 0.0000,  0.0000,  0.0000)
  24 H      1.965298    6.022232    3.404960    ( 0.0000,  0.0000,  0.0000)
  25 H      2.622652    4.598468    3.083290    ( 0.0000,  0.0000,  0.0000)
  26 H      3.332230   10.384849    2.566512    ( 0.0000,  0.0000,  0.0000)
  27 H      2.379443    9.230340    2.359866    ( 0.0000,  0.0000,  0.0000)
  28 H      0.819317    4.687149    0.356685    ( 0.0000,  0.0000,  0.0000)
  29 H     -0.142367    5.745957    1.148308    ( 0.0000,  0.0000,  0.0000)
  30 H      4.088959    3.201189    0.949529    ( 0.0000,  0.0000,  0.0000)
  31 H      4.843593    2.936822    2.287869    ( 0.0000,  0.0000,  0.0000)
  32 H      6.573001    2.477061    1.894003    ( 0.0000,  0.0000,  0.0000)
  33 H      6.392015    2.778967    3.380691    ( 0.0000,  0.0000,  0.0000)
  34 H      3.883222    5.842730    4.452157    ( 0.0000,  0.0000,  0.0000)
  35 H      3.618328    6.304552    5.912005    ( 0.0000,  0.0000,  0.0000)
  36 H      2.471620    9.614204    4.659777    ( 0.0000,  0.0000,  0.0000)
  37 H      1.578708   10.001751    5.847582    ( 0.0000,  0.0000,  0.0000)
  38 H      5.536116    7.827638    2.584181    ( 0.0000,  0.0000,  0.0000)
  39 H      4.845053    7.421572    1.335088    ( 0.0000,  0.0000,  0.0000)
  40 H      7.137993    1.205363    9.047292    ( 0.0000,  0.0000,  0.0000)
  41 H      6.006467    0.429752    9.940035    ( 0.0000,  0.0000,  0.0000)
  42 H      2.680964    7.985572    6.635088    ( 0.0000,  0.0000,  0.0000)
  43 H      1.527804    6.936578    7.063593    ( 0.0000,  0.0000,  0.0000)
  44 H      1.841800   10.031998    0.546455    ( 0.0000,  0.0000,  0.0000)
  45 H      2.346499    8.504380    0.576584    ( 0.0000,  0.0000,  0.0000)
  46 H      2.407073    3.626340    5.692111    ( 0.0000,  0.0000,  0.0000)
  47 H      1.054690    4.586924    5.360212    ( 0.0000,  0.0000,  0.0000)
  48 H      5.676115    3.674241   -1.377005    ( 0.0000,  0.0000,  0.0000)
  49 H      5.429559    2.101361   -0.556359    ( 0.0000,  0.0000,  0.0000)
  50 H      0.102779    6.383972    5.292995    ( 0.0000,  0.0000,  0.0000)
  51 H     -0.465412    5.812003    3.768276    ( 0.0000,  0.0000,  0.0000)
  52 H      0.356413    2.638520   -0.605696    ( 0.0000,  0.0000,  0.0000)
  53 H      1.502724    3.184281   -1.221980    ( 0.0000,  0.0000,  0.0000)
  54 H      4.892965    7.501095    4.544142    ( 0.0000,  0.0000,  0.0000)
  55 H      4.448849    8.828309    3.631559    ( 0.0000,  0.0000,  0.0000)
  56 H      0.158294    0.365048   -0.290901    ( 0.0000,  0.0000,  0.0000)
  57 H     -0.582030    1.001792   -1.572676    ( 0.0000,  0.0000,  0.0000)
  58 H      5.848768    5.400491    5.955866    ( 0.0000,  0.0000,  0.0000)
  59 H      7.258467    5.410938    6.725675    ( 0.0000,  0.0000,  0.0000)
  60 H      4.372127    2.693752    6.728402    ( 0.0000,  0.0000,  0.0000)
  61 H      3.452612    1.776295    5.846473    ( 0.0000,  0.0000,  0.0000)
  62 H     -1.283948   10.927571    5.582067    ( 0.0000,  0.0000,  0.0000)
  63 H      0.061523   11.480865    5.801340    ( 0.0000,  0.0000,  0.0000)
  64 H     -0.121671    6.296246   -0.968161    ( 0.0000,  0.0000,  0.0000)
  65 H     -0.576472    7.691199   -1.542093    ( 0.0000,  0.0000,  0.0000)
  66 H      3.068924    6.955692   -0.207917    ( 0.0000,  0.0000,  0.0000)
  67 H      2.740326    6.596225    1.336063    ( 0.0000,  0.0000,  0.0000)
  68 H      7.150842    4.686648    2.340607    ( 0.0000,  0.0000,  0.0000)
  69 H      7.090153    6.402035    2.142950    ( 0.0000,  0.0000,  0.0000)
  70 H     -3.626058   11.034243    5.093020    ( 0.0000,  0.0000,  0.0000)
  71 H     -2.937499    9.709903    4.452717    ( 0.0000,  0.0000,  0.0000)
  72 Na     0.500060   -0.000104    0.000075    ( 0.0000,  0.0000,  0.0000)

Unit cell:
           periodic     x           y           z      points  spacing
  1. axis:    yes    8.956370    0.000000    0.000000    44     0.2036
  2. axis:    yes    0.000000    8.956370    0.000000    44     0.2036
  3. axis:    yes    0.000000    0.000000    8.956370    44     0.2036

  Lengths:   8.956370   8.956370   8.956370
  Angles:   90.000000  90.000000  90.000000

Effective grid spacing dv^(1/3) = 0.2036

                     log10-error:    total        iterations:
           time      wfs    density  energy       fermi  poisson
iter:   1  22:58:47          +inf  -303.023527    1      1      
iter:   2  22:58:48         -3.22  -303.023337    1      1      
iter:   3  22:58:49         -3.26  -303.022696    1      1      
iter:   4  22:58:49         -3.52  -303.022605    1      1      
iter:   5  22:58:50         -4.11  -303.022601    1      1      

Converged after 5 iterations.

Dipole moment: (7.240963, -18.854468, 5.804886) |e|*Ang

Energy contributions relative to reference atoms: (reference = -53998.593513)

Kinetic:       +383.025308
Potential:     -383.012426
External:        +0.000000
XC:            -312.523504
Entropy (-ST):   -0.000000
Local:           +9.488021
--------------------------
Free energy:   -303.022601
Extrapolated:  -303.022601

Fermi level: -0.35334

 Band  Eigenvalues  Occupancy
    0    -37.37783    2.00000
    1    -33.08587    2.00000
    2    -32.46835    2.00000
    3    -23.91921    2.00000
    4    -22.91681    2.00000
    5    -22.20544    2.00000
    6    -22.01852    2.00000
    7    -21.75207    2.00000
    8    -21.66052    2.00000
    9    -21.45837    2.00000
   10    -21.40605    2.00000
   11    -21.32864    2.00000
   12    -21.13057    2.00000
   13    -21.03690    2.00000
   14    -20.97980    2.00000
   15    -20.88427    2.00000
   16    -20.81783    2.00000
   17    -20.66912    2.00000
   18    -20.55131    2.00000
   19    -20.49744    2.00000
   20    -20.37916    2.00000
   21    -20.31704    2.00000
   22    -20.13887    2.00000
   23    -19.93119    2.00000
   24    -19.85942    2.00000
   25    -19.79013    2.00000
   26    -19.38706    2.00000
   27    -12.53610    2.00000
   28    -10.00263    2.00000
   29     -9.95811    2.00000
   30     -9.83262    2.00000
   31     -9.59882    2.00000
   32     -9.52667    2.00000
   33     -9.43114    2.00000
   34     -9.29591    2.00000
   35     -9.19864    2.00000
   36     -9.18589    2.00000
   37     -9.10009    2.00000
   38     -8.97079    2.00000
   39     -8.93429    2.00000
   40     -8.75189    2.00000
   41     -8.70399    2.00000
   42     -8.64813    2.00000
   43     -8.50424    2.00000
   44     -8.44342    2.00000
   45     -8.42434    2.00000
   46     -8.15570    2.00000
   47     -8.07435    2.00000
   48     -7.96803    2.00000
   49     -7.88769    2.00000
   50     -7.80704    2.00000
   51     -7.62788    2.00000
   52     -7.48527    2.00000
   53     -7.46089    2.00000
   54     -7.18566    2.00000
   55     -6.92096    2.00000
   56     -6.74146    2.00000
   57     -6.57583    2.00000
   58     -6.54148    2.00000
   59     -6.32425    2.00000
   60     -6.13110    2.00000
   61     -6.04598    2.00000
   62     -5.92650    2.00000
   63     -5.81653    2.00000
   64     -5.70076    2.00000
   65     -5.56855    2.00000
   66     -5.47705    2.00000
   67     -5.46713    2.00000
   68     -5.28998    2.00000
   69     -5.07782    2.00000
   70     -4.96042    2.00000
   71     -4.88979    2.00000
   72     -4.79461    2.00000
   73     -4.61643    2.00000
   74     -4.51573    2.00000
   75     -4.38457    2.00000
   76     -4.31115    2.00000
   77     -4.17117    2.00000
   78     -4.03539    2.00000
   79     -3.96320    2.00000
   80     -3.82610    2.00000
   81     -3.71574    2.00000
   82     -3.59415    2.00000
   83     -3.55464    2.00000
   84     -3.51446    2.00000
   85     -3.45377    2.00000
   86     -3.32509    2.00000
   87     -3.18994    2.00000
   88     -3.13628    2.00000
   89     -3.09640    2.00000
   90     -2.97249    2.00000
   91     -2.92556    2.00000
   92     -2.87788    2.00000
   93     -2.81446    2.00000
   94     -2.77363    2.00000
   95     -2.72585    2.00000
   96     -2.61820    2.00000
   97     -2.49551    2.00000
   98     -2.16081    2.00000
   99      1.44883    0.00000
  100      3.64259    0.00000
  101      3.69955    0.00000
  102      3.78858    0.00000
  103      4.04043    0.00000
  104      4.39269    0.00000
  105      4.91409    0.00000
  106      5.54761    0.00000
  107      5.56958    0.00000
  108      5.72658    0.00000
  109      6.01066    0.00000
  110      6.07212    0.00000
  111      6.19692    0.00000
  112      6.30882    0.00000
  113      6.41860    0.00000
  114      6.46848    0.00000
  115      6.64908    0.00000
  116      6.76061    0.00000
  117      7.12122    0.00000
  118      7.29874    0.00000
  119      7.37649    0.00000
  120      7.86793    0.00000
  121      7.93327    0.00000
  122      8.09264    0.00000

Gap: 3.610 eV
Transition (v -> c):
  (s=0, k=0, n=98, [0.00, 0.00, 0.00]) -> (s=0, k=0, n=99, [0.00, 0.00, 0.00])

Forces in eV/Ang:
  0 O     0.31847   -0.67217   -0.62087
  1 O    -1.30932    1.46288   -2.30182
  2 O    -0.50806   -1.23270    0.98465
  3 O    -0.05315   -0.45170    1.95715
  4 O    -0.26459    0.02780    0.05906
  5 O    -2.74510    0.94853   -0.35121
  6 O    -0.30466    0.34326    1.58904
  7 O    -0.74907    0.24471    0.68206
  8 O     0.61384    0.25354   -0.77090
  9 O    -1.74452   -1.40155    1.17708
 10 O    18.95212    2.36587   16.07180
 11 O     0.30764   -1.09717    0.91198
 12 O    -1.56837   -0.48355    0.33996
 13 O     1.50596   -0.42674    0.05259
 14 O     0.37109   -0.34221    0.81536
 15 O    -1.36876   -0.71139   -0.95631
 16 O   -10.64543    4.33298   -6.23510
 17 O     2.12647   -1.87926    1.68564
 18 O    -0.40306   -0.62376    1.07285
 19 O    -1.34072    0.99069   -0.61064
 20 O     0.32835    0.12890    2.76092
 21 O    -0.26546   -0.09145   -1.12558
 22 O    -1.46372   -0.22419   -1.33587
 23 O    -0.47271   -0.98439   -0.76566
 24 H    -0.72265   -0.27855    0.66662
 25 H     0.20631    0.95246   -0.01912
 26 H     0.41099   -0.70641    0.89745
 27 H     1.23173   -0.11503    1.49558
 28 H    -0.32986    1.71144   -0.24729
 29 H     0.36996   -0.42336   -0.41016
 30 H     0.22949    0.32669   -1.28014
 31 H    -0.71016    0.26184   -0.63774
 32 H     0.13506    0.07796   -0.65625
 33 H     0.35396    0.04006    0.88920
 34 H     0.74383   -0.29835    0.47300
 35 H     1.76599   -0.33668   -0.53815
 36 H     0.34047   -0.23546   -1.44891
 37 H    -0.34806   -0.31027   -0.14478
 38 H     1.03107    0.23772    0.01626
 39 H     0.47036   -0.27318   -0.73711
 40 H    -1.19839   -0.45644    0.78378
 41 H     0.21174   -0.40644    0.13995
 42 H    -0.12579    1.11661   -0.85418
 43 H     1.57060    0.20180   -0.46896
 44 H     1.87743    3.50570   -0.51992
 45 H     1.75483   -1.09692    0.76889
 46 H    -0.22045    0.34640   -0.06049
 47 H    -0.04878    0.44232   -0.58212
 48 H     0.96105   -0.24341   -0.08686
 49 H     0.79636    1.28857   -0.12656
 50 H    -0.67635    0.14723   -0.34533
 51 H    -0.37904    0.19145    0.30377
 52 H    -1.70035   -0.11746    0.09704
 53 H     1.02240    0.66231   -1.23171
 54 H     0.49052    0.79217    0.19533
 55 H     0.57748   -0.58849    0.84412
 56 H   -37.53345   35.82132  -30.29810
 57 H    -0.79286    1.19153   -2.37257
 58 H    -1.48741    1.33387   -0.81126
 59 H    -0.70203   -0.02633   -0.53435
 60 H    -0.09801    0.51119   -0.82738
 61 H     0.17409    0.24933   -0.42208
 62 H     0.14465   -1.66448    0.28376
 63 H     1.26960    0.65264    0.35644
 64 H     0.24075   -0.03664   -1.49777
 65 H    -0.38960   -0.40320   -1.11703
 66 H     0.20078    0.10648    0.31367
 67 H     0.13763   -0.18878    0.18845
 68 H     0.87328    1.36358    0.42456
 69 H     0.30008   -1.17496    0.36275
 70 H     0.41881    0.26561    0.14319
 71 H     0.50681    1.42204    0.83588
 72 Na   26.96050  -46.22351   22.58428

System changes: positions 

Initializing position-dependent things.

Density initialized from wave functions
       .---------------------.  
      /|                     |  
     / |     H               |  
    /  |                   H |  
   /   | H  OH             O |  
  / H OH       OHH    H      |  
 *H   H|      H O HHO        |  
 |     O      H   H  OH      |  
 | H  O| H   OH           H  |  
 |    H|  HHO  H    HH O     |  
 |     O   H      O O  HO    |  
 |     .Ha--H-O-H--H--H------.  
 |    /        H   O       H/   
 |   /H  OH  O     H       /    
 |  /  H     H            /     
 | /             O       /      
 |/  OH         H  H    /       
 *---------------------*        

Positions:
   0 O      2.818524    5.590176    3.145171    ( 0.0000,  0.0000,  0.0000)
   1 O      3.099106    9.484618    3.088640    ( 0.0000,  0.0000,  0.0000)
   2 O      0.555300    5.697045    0.342052    ( 0.0000,  0.0000,  0.0000)
   3 O      3.936468    2.777540    1.805298    ( 0.0000,  0.0000,  0.0000)
   4 O      6.477423    3.279605    2.502714    ( 0.0000,  0.0000,  0.0000)
   5 O      4.455004    6.050432    5.298861    ( 0.0000,  0.0000,  0.0000)
   6 O      2.310383    9.374907    5.599492    ( 0.0000,  0.0000,  0.0000)
   7 O      5.799455    7.626409    1.605523    ( 0.0000,  0.0000,  0.0000)
   8 O      6.338325    1.347844    9.701920    ( 0.0000,  0.0000,  0.0000)
   9 O      2.582345    7.109205    7.057113    ( 0.0000,  0.0000,  0.0000)
  10 O      1.629184    9.168340    0.833312    ( 0.0000,  0.0000,  0.0000)
  11 O      1.503770    3.971614    6.005796    ( 0.0000,  0.0000,  0.0000)
  12 O      5.088149    2.972863   -0.969901    ( 0.0000,  0.0000,  0.0000)
  13 O      0.273164    5.873742    4.462951    ( 0.0000,  0.0000,  0.0000)
  14 O      1.296984    2.681231   -0.398980    ( 0.0000,  0.0000,  0.0000)
  15 O      5.266760    8.403326    4.141706    ( 0.0000,  0.0000,  0.0000)
  16 O     -0.778564    0.441646   -0.783869    ( 0.0000,  0.0000,  0.0000)
  17 O      6.540673    4.847102    6.314674    ( 0.0000,  0.0000,  0.0000)
  18 O      3.973292    2.640017    5.720854    ( 0.0000,  0.0000,  0.0000)
  19 O     -0.344789   10.603542    5.995177    ( 0.0000,  0.0000,  0.0000)
  20 O     -0.244921    6.811275   -1.932127    ( 0.0000,  0.0000,  0.0000)
  21 O      3.208705    7.271258    0.766375    ( 0.0000,  0.0000,  0.0000)
  22 O      7.730540    5.628255    2.429029    ( 0.0000,  0.0000,  0.0000)
  23 O     -2.695283   10.717726    4.757454    ( 0.0000,  0.0000,  0.0000)
  24 H      1.964154    6.019690    3.404762    ( 0.0000,  0.0000,  0.0000)
  25 H      2.621095    4.599718    3.083539    ( 0.0000,  0.0000,  0.0000)
  26 H      3.330104   10.385286    2.565737    ( 0.0000,  0.0000,  0.0000)
  27 H      2.379449    9.232216    2.362968    ( 0.0000,  0.0000,  0.0000)
  28 H      0.820868    4.688505    0.358035    ( 0.0000,  0.0000,  0.0000)
  29 H     -0.139736    5.751646    1.148081    ( 0.0000,  0.0000,  0.0000)
  30 H      4.089414    3.200794    0.949426    ( 0.0000,  0.0000,  0.0000)
  31 H      4.843320    2.936400    2.285197    ( 0.0000,  0.0000,  0.0000)
  32 H      6.571874    2.478642    1.895479    ( 0.0000,  0.0000,  0.0000)
  33 H      6.394822    2.774052    3.379740    ( 0.0000,  0.0000,  0.0000)
  34 H      3.883174    5.845445    4.454115    ( 0.0000,  0.0000,  0.0000)
  35 H      3.617998    6.303886    5.912492    ( 0.0000,  0.0000,  0.0000)
  36 H      2.472059    9.613739    4.658604    ( 0.0000,  0.0000,  0.0000)
  37 H      1.581498   10.004233    5.844785    ( 0.0000,  0.0000,  0.0000)
  38 H      5.540083    7.828751    2.585394    ( 0.0000,  0.0000,  0.0000)
  39 H      4.844570    7.423969    1.335366    ( 0.0000,  0.0000,  0.0000)
  40 H      7.132016    1.208355    9.046185    ( 0.0000,  0.0000,  0.0000)
  41 H      6.008757    0.430499    9.940819    ( 0.0000,  0.0000,  0.0000)
  42 H      2.683359    7.985507    6.635562    ( 0.0000,  0.0000,  0.0000)
  43 H      1.526933    6.936143    7.066447    ( 0.0000,  0.0000,  0.0000)
  44 H      1.841699   10.030464    0.545122    ( 0.0000,  0.0000,  0.0000)
  45 H      2.344781    8.505362    0.574877    ( 0.0000,  0.0000,  0.0000)
  46 H      2.404457    3.628156    5.692138    ( 0.0000,  0.0000,  0.0000)
  47 H      1.058622    4.585467    5.361323    ( 0.0000,  0.0000,  0.0000)
  48 H      5.675262    3.674760   -1.372887    ( 0.0000,  0.0000,  0.0000)
  49 H      5.431547    2.099776   -0.553815    ( 0.0000,  0.0000,  0.0000)
  50 H      0.103506    6.384228    5.291712    ( 0.0000,  0.0000,  0.0000)
  51 H     -0.464354    5.814063    3.768340    ( 0.0000,  0.0000,  0.0000)
  52 H      0.357634    2.639126   -0.608708    ( 0.0000,  0.0000,  0.0000)
  53 H      1.503720    3.182273   -1.223715    ( 0.0000,  0.0000,  0.0000)
  54 H      4.894795    7.499325    4.544736    ( 0.0000,  0.0000,  0.0000)
  55 H      4.450452    8.831072    3.633111    ( 0.0000,  0.0000,  0.0000)
  56 H      0.151697    0.370567   -0.292359    ( 0.0000,  0.0000,  0.0000)
  57 H     -0.580535    1.001738   -1.572492    ( 0.0000,  0.0000,  0.0000)
  58 H      5.850979    5.401935    5.959588    ( 0.0000,  0.0000,  0.0000)
  59 H      7.256821    5.410749    6.727695    ( 0.0000,  0.0000,  0.0000)
  60 H      4.371637    2.690879    6.730633    ( 0.0000,  0.0000,  0.0000)
  61 H      3.452074    1.775470    5.846109    ( 0.0000,  0.0000,  0.0000)
  62 H     -1.284066   10.927240    5.583208    ( 0.0000,  0.0000,  0.0000)
  63 H      0.064080   11.480043    5.800422    ( 0.0000,  0.0000,  0.0000)
  64 H     -0.124194    6.297151   -0.970661    ( 0.0000,  0.0000,  0.0000)
  65 H     -0.580130    7.689549   -1.539860    ( 0.0000,  0.0000,  0.0000)
  66 H      3.069542    6.955326   -0.207889    ( 0.0000,  0.0000,  0.0000)
  67 H      2.740816    6.596510    1.336360    ( 0.0000,  0.0000,  0.0000)
  68 H      7.152941    4.687689    2.336992    ( 0.0000,  0.0000,  0.0000)
  69 H      7.089486    6.403039    2.144726    ( 0.0000,  0.0000,  0.0000)
  70 H     -3.626533   11.035200    5.093894    ( 0.0000,  0.0000,  0.0000)
  71 H     -2.939374    9.710837    4.453370    ( 0.0000,  0.0000,  0.0000)
  72 Na     0.500234   -0.000401    0.000244    ( 0.0000,  0.0000,  0.0000)

Unit cell:
           periodic     x           y           z      points  spacing
  1. axis:    yes    8.956370    0.000000    0.000000    44     0.2036
  2. axis:    yes    0.000000    8.956370    0.000000    44     0.2036
  3. axis:    yes    0.000000    0.000000    8.956370    44     0.2036

  Lengths:   8.956370   8.956370   8.956370
  Angles:   90.000000  90.000000  90.000000

Effective grid spacing dv^(1/3) = 0.2036

                     log10-error:    total        iterations:
           time      wfs    density  energy       fermi  poisson
iter:   1  22:58:52          +inf  -303.557111    1      1      
iter:   2  22:58:53         -3.15  -303.556775    1      1      
iter:   3  22:58:53         -3.19  -303.555652    1      1      
iter:   4  22:58:54         -3.45  -303.555519    1      1      
iter:   5  22:58:54         -4.02  -303.555510    1      1      

Converged after 5 iterations.

Dipole moment: (7.184992, -18.883407, 5.811625) |e|*Ang

Energy contributions relative to reference atoms: (reference = -53998.593513)

Kinetic:       +383.401417
Potential:     -383.694442
External:        +0.000000
XC:            -312.742997
Entropy (-ST):   -0.000000
Local:           +9.480512
--------------------------
Free energy:   -303.555510
Extrapolated:  -303.555510

Fermi level: -0.35308

 Band  Eigenvalues  Occupancy
    0    -37.16944    2.00000
    1    -32.88454    2.00000
    2    -32.25818    2.00000
    3    -23.91012    2.00000
    4    -22.91766    2.00000
    5    -22.20111    2.00000
    6    -22.02813    2.00000
    7    -21.75711    2.00000
    8    -21.67185    2.00000
    9    -21.46221    2.00000
   10    -21.41294    2.00000
   11    -21.33583    2.00000
   12    -21.13789    2.00000
   13    -21.04778    2.00000
   14    -20.98959    2.00000
   15    -20.89143    2.00000
   16    -20.81870    2.00000
   17    -20.68650    2.00000
   18    -20.56665    2.00000
   19    -20.50029    2.00000
   20    -20.40592    2.00000
   21    -20.32888    2.00000
   22    -20.14711    2.00000
   23    -19.92540    2.00000
   24    -19.87490    2.00000
   25    -19.80354    2.00000
   26    -19.38238    2.00000
   27    -12.52279    2.00000
   28     -9.99764    2.00000
   29     -9.94934    2.00000
   30     -9.84766    2.00000
   31     -9.60534    2.00000
   32     -9.53467    2.00000
   33     -9.43072    2.00000
   34     -9.30460    2.00000
   35     -9.21112    2.00000
   36     -9.18900    2.00000
   37     -9.11281    2.00000
   38     -8.97602    2.00000
   39     -8.95011    2.00000
   40     -8.75704    2.00000
   41     -8.71899    2.00000
   42     -8.65385    2.00000
   43     -8.50113    2.00000
   44     -8.44309    2.00000
   45     -8.42784    2.00000
   46     -8.16622    2.00000
   47     -8.07470    2.00000
   48     -7.96759    2.00000
   49     -7.88742    2.00000
   50     -7.80260    2.00000
   51     -7.62234    2.00000
   52     -7.48912    2.00000
   53     -7.46492    2.00000
   54     -7.18653    2.00000
   55     -6.92969    2.00000
   56     -6.74119    2.00000
   57     -6.59018    2.00000
   58     -6.53808    2.00000
   59     -6.33262    2.00000
   60     -6.13054    2.00000
   61     -6.04747    2.00000
   62     -5.93099    2.00000
   63     -5.81341    2.00000
   64     -5.70566    2.00000
   65     -5.56896    2.00000
   66     -5.48249    2.00000
   67     -5.46822    2.00000
   68     -5.28728    2.00000
   69     -5.08208    2.00000
   70     -4.96279    2.00000
   71     -4.90334    2.00000
   72     -4.79968    2.00000
   73     -4.61274    2.00000
   74     -4.51688    2.00000
   75     -4.39608    2.00000
   76     -4.31175    2.00000
   77     -4.18001    2.00000
   78     -4.03418    2.00000
   79     -3.96393    2.00000
   80     -3.82475    2.00000
   81     -3.71947    2.00000
   82     -3.59673    2.00000
   83     -3.56188    2.00000
   84     -3.52463    2.00000
   85     -3.46326    2.00000
   86     -3.32801    2.00000
   87     -3.18654    2.00000
   88     -3.13439    2.00000
   89     -3.09569    2.00000
   90     -2.98749    2.00000
   91     -2.93099    2.00000
   92     -2.88081    2.00000
   93     -2.81757    2.00000
   94     -2.78020    2.00000
   95     -2.72566    2.00000
   96     -2.61729    2.00000
   97     -2.49464    2.00000
   98     -2.16777    2.00000
   99      1.45593    0.00000
  100      3.65123    0.00000
  101      3.70085    0.00000
  102      3.79283    0.00000
  103      4.04300    0.00000
  104      4.39626    0.00000
  105      4.91497    0.00000
  106      5.55443    0.00000
  107      5.57482    0.00000
  108      5.73079    0.00000
  109      6.01486    0.00000
  110      6.07756    0.00000
  111      6.19645    0.00000
  112      6.30803    0.00000
  113      6.42313    0.00000
  114      6.46943    0.00000
  115      6.65262    0.00000
  116      6.76214    0.00000
  117      7.12071    0.00000
  118      7.30141    0.00000
  119      7.38137    0.00000
  120      7.87456    0.00000
  121      7.94325    0.00000
  122      8.09905    0.00000

Gap: 3.624 eV
Transition (v -> c):
  (s=0, k=0, n=98, [0.00, 0.00, 0.00]) -> (s=0, k=0, n=99, [0.00, 0.00, 0.00])

Forces in eV/Ang:
  0 O     0.31274   -0.61277   -0.60988
  1 O    -1.25176    1.51220   -2.23940
  2 O    -0.47057   -1.19594    0.95053
  3 O    -0.08738   -0.44510    1.89311
  4 O    -0.26527    0.04371    0.13776
  5 O    -2.72162    0.96688   -0.30701
  6 O    -0.27918    0.34793    1.53415
  7 O    -0.71031    0.25937    0.69157
  8 O     0.53263    0.30237   -0.72690
  9 O    -1.77244   -1.43330    1.18743
 10 O    18.88546    2.33541   16.09166
 11 O     0.25610   -1.11578    0.99491
 12 O    -1.56240   -0.59773    0.39860
 13 O     1.56025   -0.44344    0.05958
 14 O     0.37287   -0.32553    0.78574
 15 O    -1.35807   -0.71806   -0.94433
 16 O   -10.62286    4.31303   -6.19683
 17 O     2.18278   -1.93681    1.71330
 18 O    -0.43232   -0.69732    1.11646
 19 O    -1.29963    1.00266   -0.59176
 20 O     0.30076    0.17215    2.71378
 21 O    -0.26410   -0.10341   -1.13164
 22 O    -1.46420   -0.21206   -1.33832
 23 O    -0.48158   -0.96335   -0.75231
 24 H    -0.71965   -0.25825    0.66407
 25 H     0.21003    0.87956   -0.02764
 26 H     0.42343   -0.71030    0.90718
 27 H     1.17175   -0.15453    1.42941
 28 H    -0.34068    1.69482   -0.23408
 29 H     0.35327   -0.45990   -0.39261
 30 H     0.21335    0.31389   -1.26304
 31 H    -0.66739    0.26758   -0.58618
 32 H     0.15196    0.03301   -0.71679
 33 H     0.34047    0.07791    0.87767
 34 H     0.72546   -0.32175    0.42270
 35 H     1.76839   -0.33030   -0.53198
 36 H     0.34455   -0.25208   -1.41855
 37 H    -0.37562   -0.29600   -0.11934
 38 H     1.00483    0.23098    0.00206
 39 H     0.44918   -0.27689   -0.72615
 40 H    -1.09604   -0.47636    0.72403
 41 H     0.19138   -0.44732    0.14481
 42 H    -0.13978    1.12414   -0.85641
 43 H     1.61088    0.22678   -0.48226
 44 H     1.89095    3.57000   -0.54361
 45 H     1.77457   -1.11312    0.76588
 46 H    -0.10990    0.29818   -0.08695
 47 H    -0.11351    0.50796   -0.64384
 48 H     0.98171   -0.21439   -0.11064
 49 H     0.76087    1.35770   -0.15298
 50 H    -0.68460    0.16720   -0.31517
 51 H    -0.42427    0.18566    0.26871
 52 H    -1.71184   -0.11791    0.10504
 53 H     1.03182    0.65550   -1.20794
 54 H     0.47881    0.81993    0.18095
 55 H     0.56711   -0.61613    0.84058
 56 H   -37.21725   35.38065  -29.65758
 57 H    -0.79070    1.19954   -2.39635
 58 H    -1.57073    1.38496   -0.85444
 59 H    -0.67141   -0.02211   -0.52359
 60 H    -0.09351    0.52970   -0.85630
 61 H     0.20913    0.30429   -0.43749
 62 H     0.13520   -1.64438    0.26956
 63 H     1.24203    0.62858    0.35355
 64 H     0.25365   -0.06754   -1.44723
 65 H    -0.37075   -0.40622   -1.13136
 66 H     0.20133    0.11097    0.32353
 67 H     0.13891   -0.18830    0.18770
 68 H     0.86496    1.37059    0.43941
 69 H     0.30384   -1.18313    0.35557
 70 H     0.42632    0.26607    0.13334
 71 H     0.51559    1.40007    0.82925
 72 Na   26.64355  -45.79360   21.94334

System changes: positions 

Initializing position-dependent things.

Density initialized from wave functions
       .---------------------.  
      /|                     |  
     / |     H               |  
    /  |                   H |  
   /   | H  OH             O |  
  / H OH       OHH    H      |  
 *H   H|      H O HHO        |  
 |     O      H   H  OH      |  
 | H  O| H   OH           H  |  
 |    H|  HHO  H    HH O     |  
 |     O   H      O O  HO    |  
 |     .Ha--H-O-H--H--H------.  
 |    /        H   O       H/   
 |   /H  OH  O     H       /    
 |  /  H     H            /     
 | /             O       /      
 |/  OH         H  H    /       
 *---------------------*        

Positions:
   0 O      2.818091    5.589403    3.144741    ( 0.0000,  0.0000,  0.0000)
   1 O      3.098688    9.484202    3.088048    ( 0.0000,  0.0000,  0.0000)
   2 O      0.554860    5.697065    0.342178    ( 0.0000,  0.0000,  0.0000)
   3 O      3.936483    2.777634    1.805918    ( 0.0000,  0.0000,  0.0000)
   4 O      6.476628    3.279339    2.502532    ( 0.0000,  0.0000,  0.0000)
   5 O      4.454715    6.050171    5.299245    ( 0.0000,  0.0000,  0.0000)
   6 O      2.310436    9.374489    5.599205    ( 0.0000,  0.0000,  0.0000)
   7 O      5.799045    7.626648    1.605457    ( 0.0000,  0.0000,  0.0000)
   8 O      6.338485    1.348009    9.701837    ( 0.0000,  0.0000,  0.0000)
   9 O      2.582888    7.109800    7.057913    ( 0.0000,  0.0000,  0.0000)
  10 O      1.629666    9.168624    0.834018    ( 0.0000,  0.0000,  0.0000)
  11 O      1.504321    3.971298    6.006056    ( 0.0000,  0.0000,  0.0000)
  12 O      5.087916    2.972260   -0.970055    ( 0.0000,  0.0000,  0.0000)
  13 O      0.272364    5.873953    4.462573    ( 0.0000,  0.0000,  0.0000)
  14 O      1.297604    2.680780   -0.399354    ( 0.0000,  0.0000,  0.0000)
  15 O      5.267328    8.403008    4.141879    ( 0.0000,  0.0000,  0.0000)
  16 O     -0.778889    0.441671   -0.784477    ( 0.0000,  0.0000,  0.0000)
  17 O      6.541125    4.847167    6.314315    ( 0.0000,  0.0000,  0.0000)
  18 O      3.974190    2.640608    5.720637    ( 0.0000,  0.0000,  0.0000)
  19 O     -0.345351   10.603512    5.994171    ( 0.0000,  0.0000,  0.0000)
  20 O     -0.244936    6.811047   -1.930866    ( 0.0000,  0.0000,  0.0000)
  21 O      3.209040    7.271434    0.766447    ( 0.0000,  0.0000,  0.0000)
  22 O      7.730601    5.629138    2.429008    ( 0.0000,  0.0000,  0.0000)
  23 O     -2.695831   10.717608    4.756937    ( 0.0000,  0.0000,  0.0000)
  24 H      1.962941    6.017124    3.404627    ( 0.0000,  0.0000,  0.0000)
  25 H      2.619558    4.601052    3.083786    ( 0.0000,  0.0000,  0.0000)
  26 H      3.328018   10.385654    2.565048    ( 0.0000,  0.0000,  0.0000)
  27 H      2.379568    9.234077    2.366207    ( 0.0000,  0.0000,  0.0000)
  28 H      0.822387    4.690022    0.359362    ( 0.0000,  0.0000,  0.0000)
  29 H     -0.137071    5.757290    1.147816    ( 0.0000,  0.0000,  0.0000)
  30 H      4.089890    3.200429    0.949202    ( 0.0000,  0.0000,  0.0000)
  31 H      4.842983    2.936004    2.282469    ( 0.0000,  0.0000,  0.0000)
  32 H      6.570763    2.480226    1.896887    ( 0.0000,  0.0000,  0.0000)
  33 H      6.397661    2.769144    3.378873    ( 0.0000,  0.0000,  0.0000)
  34 H      3.883196    5.848128    4.456113    ( 0.0000,  0.0000,  0.0000)
  35 H      3.617837    6.303189    5.912928    ( 0.0000,  0.0000,  0.0000)
  36 H      2.472531    9.613249    4.657294    ( 0.0000,  0.0000,  0.0000)
  37 H      1.584251   10.006687    5.841977    ( 0.0000,  0.0000,  0.0000)
  38 H      5.544145    7.829887    2.586607    ( 0.0000,  0.0000,  0.0000)
  39 H      4.844131    7.426340    1.335575    ( 0.0000,  0.0000,  0.0000)
  40 H      7.125935    1.211302    9.045147    ( 0.0000,  0.0000,  0.0000)
  41 H      6.011066    0.431205    9.941618    ( 0.0000,  0.0000,  0.0000)
  42 H      2.685741    7.985551    6.635955    ( 0.0000,  0.0000,  0.0000)
  43 H      1.526217    6.935729    7.069254    ( 0.0000,  0.0000,  0.0000)
  44 H      1.841779   10.029272    0.543736    ( 0.0000,  0.0000,  0.0000)
  45 H      2.343233    8.506237    0.573244    ( 0.0000,  0.0000,  0.0000)
  46 H      2.401829    3.630000    5.692157    ( 0.0000,  0.0000,  0.0000)
  47 H      1.062543    4.584059    5.362372    ( 0.0000,  0.0000,  0.0000)
  48 H      5.674503    3.675257   -1.368780    ( 0.0000,  0.0000,  0.0000)
  49 H      5.433607    2.098320   -0.551285    ( 0.0000,  0.0000,  0.0000)
  50 H      0.104167    6.384499    5.290398    ( 0.0000,  0.0000,  0.0000)
  51 H     -0.463337    5.816140    3.768429    ( 0.0000,  0.0000,  0.0000)
  52 H      0.358692    2.639721   -0.611710    ( 0.0000,  0.0000,  0.0000)
  53 H      1.504815    3.180328   -1.225566    ( 0.0000,  0.0000,  0.0000)
  54 H      4.896670    7.497633    4.545348    ( 0.0000,  0.0000,  0.0000)
  55 H      4.452110    8.833775    3.634744    ( 0.0000,  0.0000,  0.0000)
  56 H      0.141539    0.379472   -0.296657    ( 0.0000,  0.0000,  0.0000)
  57 H     -0.579115    1.001799   -1.572537    ( 0.0000,  0.0000,  0.0000)
  58 H      5.853039    5.403511    5.963227    ( 0.0000,  0.0000,  0.0000)
  59 H      7.255110    5.410558    6.729666    ( 0.0000,  0.0000,  0.0000)
  60 H      4.371137    2.688058    6.732781    ( 0.0000,  0.0000,  0.0000)
  61 H      3.451555    1.774675    5.845703    ( 0.0000,  0.0000,  0.0000)
  62 H     -1.284171   10.926751    5.584376    ( 0.0000,  0.0000,  0.0000)
  63 H      0.066757   11.479281    5.799537    ( 0.0000,  0.0000,  0.0000)
  64 H     -0.126693    6.298049   -0.973300    ( 0.0000,  0.0000,  0.0000)
  65 H     -0.583824    7.687861   -1.537735    ( 0.0000,  0.0000,  0.0000)
  66 H      3.070180    6.954971   -0.207830    ( 0.0000,  0.0000,  0.0000)
  67 H      2.741319    6.596777    1.336675    ( 0.0000,  0.0000,  0.0000)
  68 H      7.155123    4.688860    2.333420    ( 0.0000,  0.0000,  0.0000)
  69 H      7.088848    6.403930    2.146536    ( 0.0000,  0.0000,  0.0000)
  70 H     -3.626968   11.036182    5.094780    ( 0.0000,  0.0000,  0.0000)
  71 H     -2.941200    9.711905    4.454102    ( 0.0000,  0.0000,  0.0000)
  72 Na     0.500519   -0.000891    0.000506    ( 0.0000,  0.0000,  0.0000)

Unit cell:
           periodic     x           y           z      points  spacing
  1. axis:    yes    8.956370    0.000000    0.000000    44     0.2036
  2. axis:    yes    0.000000    8.956370    0.000000    44     0.2036
  3. axis:    yes    0.000000    0.000000    8.956370    44     0.2036

  Lengths:   8.956370   8.956370   8.956370
  Angles:   90.000000  90.000000  90.000000

Effective grid spacing dv^(1/3) = 0.2036

                     log10-error:    total        iterations:
           time      wfs    density  energy       fermi  poisson
iter:   1  22:58:57          +inf  -304.438344    1      1      
iter:   2  22:58:57         -3.08  -304.437706    1      1      
iter:   3  22:58:58         -3.12  -304.435624    1      1      
iter:   4  22:58:59         -3.38  -304.435399    1      1      
iter:   5  22:58:59         -3.91  -304.435386    1      1      
iter:   6  22:59:00         -4.08  -304.435379    1      1      

Converged after 6 iterations.

Dipole moment: (7.144671, -18.896607, 5.809064) |e|*Ang

Energy contributions relative to reference atoms: (reference = -53998.593513)

Kinetic:       +383.455783
Potential:     -384.412117
External:        +0.000000
XC:            -312.944003
Entropy (-ST):   -0.000000
Local:           +9.464958
--------------------------
Free energy:   -304.435379
Extrapolated:  -304.435379

Fermi level: -0.35142

 Band  Eigenvalues  Occupancy
    0    -36.81920    2.00000
    1    -32.54801    2.00000
    2    -31.90742    2.00000
    3    -23.88685    2.00000
    4    -22.91455    2.00000
    5    -22.20629    2.00000
    6    -22.03652    2.00000
    7    -21.76372    2.00000
    8    -21.68299    2.00000
    9    -21.46585    2.00000
   10    -21.42381    2.00000
   11    -21.34032    2.00000
   12    -21.14452    2.00000
   13    -21.05969    2.00000
   14    -21.00140    2.00000
   15    -20.90206    2.00000
   16    -20.82033    2.00000
   17    -20.70620    2.00000
   18    -20.58730    2.00000
   19    -20.50312    2.00000
   20    -20.43242    2.00000
   21    -20.34127    2.00000
   22    -20.15587    2.00000
   23    -19.92078    2.00000
   24    -19.89144    2.00000
   25    -19.81657    2.00000
   26    -19.38042    2.00000
   27    -12.49262    2.00000
   28    -10.00028    2.00000
   29     -9.93872    2.00000
   30     -9.87075    2.00000
   31     -9.61381    2.00000
   32     -9.54521    2.00000
   33     -9.43012    2.00000
   34     -9.31440    2.00000
   35     -9.23519    2.00000
   36     -9.18551    2.00000
   37     -9.12614    2.00000
   38     -8.98014    2.00000
   39     -8.96705    2.00000
   40     -8.76826    2.00000
   41     -8.73236    2.00000
   42     -8.65590    2.00000
   43     -8.49681    2.00000
   44     -8.44593    2.00000
   45     -8.42341    2.00000
   46     -8.18035    2.00000
   47     -8.07510    2.00000
   48     -7.96542    2.00000
   49     -7.88657    2.00000
   50     -7.79979    2.00000
   51     -7.61753    2.00000
   52     -7.49642    2.00000
   53     -7.46685    2.00000
   54     -7.19072    2.00000
   55     -6.94946    2.00000
   56     -6.74031    2.00000
   57     -6.61572    2.00000
   58     -6.53306    2.00000
   59     -6.34776    2.00000
   60     -6.13109    2.00000
   61     -6.05086    2.00000
   62     -5.93685    2.00000
   63     -5.81137    2.00000
   64     -5.71478    2.00000
   65     -5.57048    2.00000
   66     -5.48883    2.00000
   67     -5.46720    2.00000
   68     -5.28166    2.00000
   69     -5.08706    2.00000
   70     -4.96491    2.00000
   71     -4.92145    2.00000
   72     -4.80162    2.00000
   73     -4.60973    2.00000
   74     -4.51498    2.00000
   75     -4.40920    2.00000
   76     -4.31225    2.00000
   77     -4.19060    2.00000
   78     -4.03398    2.00000
   79     -3.96310    2.00000
   80     -3.82178    2.00000
   81     -3.72395    2.00000
   82     -3.59832    2.00000
   83     -3.57168    2.00000
   84     -3.53640    2.00000
   85     -3.47305    2.00000
   86     -3.33301    2.00000
   87     -3.18335    2.00000
   88     -3.13291    2.00000
   89     -3.09507    2.00000
   90     -3.00725    2.00000
   91     -2.93628    2.00000
   92     -2.88410    2.00000
   93     -2.82177    2.00000
   94     -2.78769    2.00000
   95     -2.72614    2.00000
   96     -2.61818    2.00000
   97     -2.49542    2.00000
   98     -2.17563    2.00000
   99      1.46673    0.00000
  100      3.66346    0.00000
  101      3.70275    0.00000
  102      3.80000    0.00000
  103      4.04673    0.00000
  104      4.40049    0.00000
  105      4.91555    0.00000
  106      5.56269    0.00000
  107      5.58102    0.00000
  108      5.73650    0.00000
  109      6.01971    0.00000
  110      6.08432    0.00000
  111      6.19743    0.00000
  112      6.30813    0.00000
  113      6.42937    0.00000
  114      6.47021    0.00000
  115      6.65601    0.00000
  116      6.76378    0.00000
  117      7.11930    0.00000
  118      7.30337    0.00000
  119      7.38710    0.00000
  120      7.88075    0.00000
  121      7.95333    0.00000
  122      8.10568    0.00000

Gap: 3.642 eV
Transition (v -> c):
  (s=0, k=0, n=98, [0.00, 0.00, 0.00]) -> (s=0, k=0, n=99, [0.00, 0.00, 0.00])

Forces in eV/Ang:
  0 O     0.30480   -0.55052   -0.59603
  1 O    -1.19051    1.56035   -2.16858
  2 O    -0.43318   -1.15425    0.91748
  3 O    -0.12099   -0.43605    1.82147
  4 O    -0.26321    0.05584    0.21631
  5 O    -2.69310    0.98389   -0.26342
  6 O    -0.25490    0.35437    1.47511
  7 O    -0.66781    0.27589    0.70000
  8 O     0.45418    0.34756   -0.68599
  9 O    -1.79251   -1.45937    1.19460
 10 O    18.83473    2.33055   16.10585
 11 O     0.20275   -1.13060    1.07270
 12 O    -1.55299   -0.70209    0.45822
 13 O     1.61413   -0.45976    0.06681
 14 O     0.36713   -0.30925    0.74794
 15 O    -1.34186   -0.72354   -0.93041
 16 O   -10.60737    4.30663   -6.17457
 17 O     2.22743   -1.98679    1.73638
 18 O    -0.46095   -0.76514    1.15520
 19 O    -1.25647    1.01150   -0.56518
 20 O     0.26746    0.21782    2.66437
 21 O    -0.25902   -0.11751   -1.13509
 22 O    -1.46204   -0.20228   -1.33878
 23 O    -0.48692   -0.94084   -0.73820
 24 H    -0.71423   -0.23841    0.66039
 25 H     0.21325    0.80252   -0.03649
 26 H     0.43455   -0.71331    0.91543
 27 H     1.10384   -0.19446    1.35528
 28 H    -0.35011    1.67410   -0.21980
 29 H     0.33713   -0.49430   -0.37284
 30 H     0.19596    0.29821   -1.23978
 31 H    -0.62227    0.27355   -0.53439
 32 H     0.16882   -0.01070   -0.77533
 33 H     0.32814    0.11676    0.85840
 34 H     0.70453   -0.34567    0.36989
 35 H     1.76621   -0.32272   -0.52255
 36 H     0.34763   -0.26990   -1.38477
 37 H    -0.40026   -0.28294   -0.09629
 38 H     0.97601    0.22308   -0.01498
 39 H     0.42555   -0.28052   -0.71540
 40 H    -0.99682   -0.48943    0.66988
 41 H     0.17091   -0.48844    0.14970
 42 H    -0.15441    1.12465   -0.85434
 43 H     1.64996    0.25096   -0.49315
 44 H     1.89578    3.60767   -0.56167
 45 H     1.78582   -1.12171    0.76327
 46 H     0.00453    0.24844   -0.11531
 47 H    -0.17725    0.57422   -0.70381
 48 H     1.00124   -0.18587   -0.13464
 49 H     0.72329    1.42415   -0.17950
 50 H    -0.69237    0.18720   -0.28474
 51 H    -0.46884    0.17982    0.23297
 52 H    -1.71234   -0.11597    0.11494
 53 H     1.03713    0.64438   -1.17648
 54 H     0.46588    0.84681    0.16674
 55 H     0.55292   -0.64342    0.83444
 56 H   -36.52549   34.55750  -28.71471
 57 H    -0.79187    1.21096   -2.42703
 58 H    -1.64719    1.42718   -0.89510
 59 H    -0.63866   -0.01619   -0.51000
 60 H    -0.08960    0.55043   -0.88694
 61 H     0.24300    0.35809   -0.45261
 62 H     0.12445   -1.62254    0.25409
 63 H     1.21295    0.60007    0.35321
 64 H     0.26768   -0.09983   -1.38930
 65 H    -0.35016   -0.41500   -1.14477
 66 H     0.20126    0.11567    0.33358
 67 H     0.14080   -0.18599    0.18533
 68 H     0.85685    1.37614    0.45386
 69 H     0.30642   -1.18858    0.34713
 70 H     0.43176    0.26743    0.12405
 71 H     0.52354    1.37403    0.82107
 72 Na   25.95072  -44.99259   21.01250

System changes: positions 

Initializing position-dependent things.

Density initialized from wave functions
       .---------------------.  
      /|                     |  
     / |     H               |  
    /  |     H             H |  
   /   | H  O              O |  
  / H OH       OHH    H      |  
 *H   H|      H O HHO        |  
 |     O      H   H  OH      |  
 | H  O| H   OH           H  |  
 |    H|  HHO  H    HH O     |  
 |     O   H      O O  HO    |  
 |     .Ha--H-O-H--H--H------.  
 |    /        H   O       H/   
 |   /H  OH  O     H       /    
 |  /  H     H            /     
 | /            HO       /      
 |/  OH            H    /       
 *---------------------*        

Positions:
   0 O      2.817659    5.588627    3.144307    ( 0.0000,  0.0000,  0.0000)
   1 O      3.098264    9.483796    3.087442    ( 0.0000,  0.0000,  0.0000)
   2 O      0.554418    5.697079    0.342309    ( 0.0000,  0.0000,  0.0000)
   3 O      3.936497    2.777725    1.806549    ( 0.0000,  0.0000,  0.0000)
   4 O      6.475830    3.279074    2.502351    ( 0.0000,  0.0000,  0.0000)
   5 O      4.454411    6.049915    5.299627    ( 0.0000,  0.0000,  0.0000)
   6 O      2.310488    9.374074    5.598927    ( 0.0000,  0.0000,  0.0000)
   7 O      5.798630    7.626888    1.605394    ( 0.0000,  0.0000,  0.0000)
   8 O      6.338648    1.348176    9.701750    ( 0.0000,  0.0000,  0.0000)
   9 O      2.583420    7.110388    7.058719    ( 0.0000,  0.0000,  0.0000)
  10 O      1.630261    9.168922    0.834820    ( 0.0000,  0.0000,  0.0000)
  11 O      1.504874    3.970975    6.006324    ( 0.0000,  0.0000,  0.0000)
  12 O      5.087673    2.971652   -0.970206    ( 0.0000,  0.0000,  0.0000)
  13 O      0.271574    5.874162    4.462195    ( 0.0000,  0.0000,  0.0000)
  14 O      1.298226    2.680328   -0.399722    ( 0.0000,  0.0000,  0.0000)
  15 O      5.267888    8.402686    4.142046    ( 0.0000,  0.0000,  0.0000)
  16 O     -0.779278    0.441721   -0.785122    ( 0.0000,  0.0000,  0.0000)
  17 O      6.541590    4.847219    6.313966    ( 0.0000,  0.0000,  0.0000)
  18 O      3.975086    2.641193    5.720426    ( 0.0000,  0.0000,  0.0000)
  19 O     -0.345921   10.603488    5.993161    ( 0.0000,  0.0000,  0.0000)
  20 O     -0.244949    6.810820   -1.929588    ( 0.0000,  0.0000,  0.0000)
  21 O      3.209373    7.271610    0.766512    ( 0.0000,  0.0000,  0.0000)
  22 O      7.730652    5.630020    2.428979    ( 0.0000,  0.0000,  0.0000)
  23 O     -2.696381   10.717485    4.756416    ( 0.0000,  0.0000,  0.0000)
  24 H      1.961660    6.014535    3.404556    ( 0.0000,  0.0000,  0.0000)
  25 H      2.618041    4.602462    3.084030    ( 0.0000,  0.0000,  0.0000)
  26 H      3.325973   10.385954    2.564448    ( 0.0000,  0.0000,  0.0000)
  27 H      2.379793    9.235920    2.369575    ( 0.0000,  0.0000,  0.0000)
  28 H      0.823873    4.691700    0.360669    ( 0.0000,  0.0000,  0.0000)
  29 H     -0.134374    5.762887    1.147515    ( 0.0000,  0.0000,  0.0000)
  30 H      4.090384    3.200093    0.948859    ( 0.0000,  0.0000,  0.0000)
  31 H      4.842586    2.935634    2.279690    ( 0.0000,  0.0000,  0.0000)
  32 H      6.569668    2.481809    1.898220    ( 0.0000,  0.0000,  0.0000)
  33 H      6.400531    2.764247    3.378088    ( 0.0000,  0.0000,  0.0000)
  34 H      3.883285    5.850779    4.458147    ( 0.0000,  0.0000,  0.0000)
  35 H      3.617846    6.302461    5.913314    ( 0.0000,  0.0000,  0.0000)
  36 H      2.473037    9.612734    4.655852    ( 0.0000,  0.0000,  0.0000)
  37 H      1.586967   10.009114    5.839160    ( 0.0000,  0.0000,  0.0000)
  38 H      5.548302    7.831045    2.587819    ( 0.0000,  0.0000,  0.0000)
  39 H      4.843731    7.428683    1.335716    ( 0.0000,  0.0000,  0.0000)
  40 H      7.119759    1.214201    9.044174    ( 0.0000,  0.0000,  0.0000)
  41 H      6.013390    0.431863    9.942431    ( 0.0000,  0.0000,  0.0000)
  42 H      2.688108    7.985701    6.636265    ( 0.0000,  0.0000,  0.0000)
  43 H      1.525659    6.935340    7.072013    ( 0.0000,  0.0000,  0.0000)
  44 H      1.842040   10.028425    0.542297    ( 0.0000,  0.0000,  0.0000)
  45 H      2.341856    8.507005    0.571683    ( 0.0000,  0.0000,  0.0000)
  46 H      2.399203    3.631868    5.692164    ( 0.0000,  0.0000,  0.0000)
  47 H      1.066447    4.582706    5.363353    ( 0.0000,  0.0000,  0.0000)
  48 H      5.673840    3.675737   -1.364686    ( 0.0000,  0.0000,  0.0000)
  49 H      5.435737    2.097000   -0.548772    ( 0.0000,  0.0000,  0.0000)
  50 H      0.104763    6.384788    5.289058    ( 0.0000,  0.0000,  0.0000)
  51 H     -0.462365    5.818235    3.768541    ( 0.0000,  0.0000,  0.0000)
  52 H      0.359585    2.640305   -0.614700    ( 0.0000,  0.0000,  0.0000)
  53 H      1.506009    3.178444   -1.227530    ( 0.0000,  0.0000,  0.0000)
  54 H      4.898591    7.496023    4.545976    ( 0.0000,  0.0000,  0.0000)
  55 H      4.453820    8.836417    3.636456    ( 0.0000,  0.0000,  0.0000)
  56 H      0.127884    0.391685   -0.303703    ( 0.0000,  0.0000,  0.0000)
  57 H     -0.577772    1.001976   -1.572815    ( 0.0000,  0.0000,  0.0000)
  58 H      5.854942    5.405224    5.966782    ( 0.0000,  0.0000,  0.0000)
  59 H      7.253339    5.410365    6.731587    ( 0.0000,  0.0000,  0.0000)
  60 H      4.370629    2.685289    6.734844    ( 0.0000,  0.0000,  0.0000)
  61 H      3.451060    1.773914    5.845253    ( 0.0000,  0.0000,  0.0000)
  62 H     -1.284265   10.926107    5.585567    ( 0.0000,  0.0000,  0.0000)
  63 H      0.069549   11.478577    5.798687    ( 0.0000,  0.0000,  0.0000)
  64 H     -0.129166    6.298937   -0.976071    ( 0.0000,  0.0000,  0.0000)
  65 H     -0.587551    7.686133   -1.535720    ( 0.0000,  0.0000,  0.0000)
  66 H      3.070836    6.954627   -0.207738    ( 0.0000,  0.0000,  0.0000)
  67 H      2.741835    6.597027    1.337008    ( 0.0000,  0.0000,  0.0000)
  68 H      7.157386    4.690164    2.329890    ( 0.0000,  0.0000,  0.0000)
  69 H      7.088240    6.404708    2.148380    ( 0.0000,  0.0000,  0.0000)
  70 H     -3.627361   11.037190    5.095679    ( 0.0000,  0.0000,  0.0000)
  71 H     -2.942975    9.713105    4.454913    ( 0.0000,  0.0000,  0.0000)
  72 Na     0.500914   -0.001569    0.000855    ( 0.0000,  0.0000,  0.0000)

Unit cell:
           periodic     x           y           z      points  spacing
  1. axis:    yes    8.956370    0.000000    0.000000    44     0.2036
  2. axis:    yes    0.000000    8.956370    0.000000    44     0.2036
  3. axis:    yes    0.000000    0.000000    8.956370    44     0.2036

  Lengths:   8.956370   8.956370   8.956370
  Angles:   90.000000  90.000000  90.000000

Effective grid spacing dv^(1/3) = 0.2036

                     log10-error:    total        iterations:
           time      wfs    density  energy       fermi  poisson
iter:   1  22:59:02          +inf  -305.633316    1      1      
iter:   2  22:59:03         -3.02  -305.632189    1      1      
iter:   3  22:59:03         -3.06  -305.628605    1      1      
iter:   4  22:59:04         -3.31  -305.628235    1      1      
iter:   5  22:59:05         -3.81  -305.628214    1      1      
iter:   6  22:59:05         -3.92  -305.628195    1      1      
iter:   7  22:59:06         -4.28  -305.628191    1      1      

Converged after 7 iterations.

Dipole moment: (7.131168, -18.894491, 5.795291) |e|*Ang

Energy contributions relative to reference atoms: (reference = -53998.593513)

Kinetic:       +383.240673
Potential:     -385.183500
External:        +0.000000
XC:            -313.132640
Entropy (-ST):   -0.000000
Local:           +9.447276
--------------------------
Free energy:   -305.628191
Extrapolated:  -305.628191

Fermi level: -0.34834

 Band  Eigenvalues  Occupancy
    0    -36.33572    2.00000
    1    -32.08988    2.00000
    2    -31.42981    2.00000
    3    -23.85302    2.00000
    4    -22.90923    2.00000
    5    -22.22642    2.00000
    6    -22.03626    2.00000
    7    -21.77179    2.00000
    8    -21.69277    2.00000
    9    -21.47062    2.00000
   10    -21.43979    2.00000
   11    -21.34153    2.00000
   12    -21.15037    2.00000
   13    -21.07291    2.00000
   14    -21.01604    2.00000
   15    -20.91621    2.00000
   16    -20.82269    2.00000
   17    -20.72771    2.00000
   18    -20.61298    2.00000
   19    -20.50560    2.00000
   20    -20.45557    2.00000
   21    -20.35396    2.00000
   22    -20.16490    2.00000
   23    -19.91882    2.00000
   24    -19.90857    2.00000
   25    -19.82905    2.00000
   26    -19.38068    2.00000
   27    -12.44601    2.00000
   28    -10.02423    2.00000
   29     -9.92847    2.00000
   30     -9.88846    2.00000
   31     -9.62636    2.00000
   32     -9.55778    2.00000
   33     -9.42888    2.00000
   34     -9.32529    2.00000
   35     -9.26620    2.00000
   36     -9.18082    2.00000
   37     -9.13904    2.00000
   38     -8.99189    2.00000
   39     -8.97649    2.00000
   40     -8.78787    2.00000
   41     -8.73917    2.00000
   42     -8.65587    2.00000
   43     -8.49300    2.00000
   44     -8.45207    2.00000
   45     -8.40950    2.00000
   46     -8.19903    2.00000
   47     -8.07574    2.00000
   48     -7.96200    2.00000
   49     -7.88532    2.00000
   50     -7.79891    2.00000
   51     -7.61448    2.00000
   52     -7.51063    2.00000
   53     -7.46750    2.00000
   54     -7.20387    2.00000
   55     -6.97896    2.00000
   56     -6.73921    2.00000
   57     -6.64873    2.00000
   58     -6.52733    2.00000
   59     -6.36801    2.00000
   60     -6.13216    2.00000
   61     -6.05693    2.00000
   62     -5.94324    2.00000
   63     -5.81173    2.00000
   64     -5.72660    2.00000
   65     -5.57289    2.00000
   66     -5.49557    2.00000
   67     -5.46422    2.00000
   68     -5.27378    2.00000
   69     -5.09217    2.00000
   70     -4.96878    2.00000
   71     -4.94169    2.00000
   72     -4.80056    2.00000
   73     -4.60891    2.00000
   74     -4.50907    2.00000
   75     -4.42315    2.00000
   76     -4.31193    2.00000
   77     -4.20245    2.00000
   78     -4.03515    2.00000
   79     -3.96000    2.00000
   80     -3.81784    2.00000
   81     -3.72949    2.00000
   82     -3.60027    2.00000
   83     -3.58453    2.00000
   84     -3.55040    2.00000
   85     -3.48302    2.00000
   86     -3.34038    2.00000
   87     -3.18027    2.00000
   88     -3.13166    2.00000
   89     -3.09454    2.00000
   90     -3.02864    2.00000
   91     -2.94161    2.00000
   92     -2.88769    2.00000
   93     -2.82661    2.00000
   94     -2.79534    2.00000
   95     -2.72768    2.00000
   96     -2.62099    2.00000
   97     -2.49781    2.00000
   98     -2.18417    2.00000
   99      1.48109    0.00000
  100      3.67918    0.00000
  101      3.70494    0.00000
  102      3.81022    0.00000
  103      4.05155    0.00000
  104      4.40537    0.00000
  105      4.91566    0.00000
  106      5.57220    0.00000
  107      5.58833    0.00000
  108      5.74368    0.00000
  109      6.02486    0.00000
  110      6.09235    0.00000
  111      6.19975    0.00000
  112      6.30899    0.00000
  113      6.43740    0.00000
  114      6.47073    0.00000
  115      6.65926    0.00000
  116      6.76554    0.00000
  117      7.11709    0.00000
  118      7.30447    0.00000
  119      7.39371    0.00000
  120      7.88640    0.00000
  121      7.96317    0.00000
  122      8.11246    0.00000

Gap: 3.665 eV
Transition (v -> c):
  (s=0, k=0, n=98, [0.00, 0.00, 0.00]) -> (s=0, k=0, n=99, [0.00, 0.00, 0.00])

Forces in eV/Ang:
  0 O     0.29324   -0.48735   -0.58164
  1 O    -1.13033    1.60603   -2.09183
  2 O    -0.39253   -1.10740    0.89075
  3 O    -0.15217   -0.42704    1.74473
  4 O    -0.25730    0.06018    0.28975
  5 O    -2.66092    1.00168   -0.22312
  6 O    -0.22571    0.36294    1.41399
  7 O    -0.62182    0.29584    0.70795
  8 O     0.37943    0.38451   -0.65316
  9 O    -1.80384   -1.47865    1.20057
 10 O    18.79262    2.34660   16.10173
 11 O     0.14950   -1.14368    1.14441
 12 O    -1.54410   -0.79220    0.51646
 13 O     1.66494   -0.46969    0.07233
 14 O     0.35496   -0.29289    0.69964
 15 O    -1.32313   -0.72560   -0.91651
 16 O   -10.58988    4.33213   -6.16943
 17 O     2.25773   -2.02637    1.75604
 18 O    -0.48731   -0.83091    1.18895
 19 O    -1.21347    1.02159   -0.53471
 20 O     0.22802    0.26233    2.61911
 21 O    -0.25047   -0.13601   -1.13542
 22 O    -1.46000   -0.19736   -1.33679
 23 O    -0.48776   -0.91500   -0.72218
 24 H    -0.70645   -0.22013    0.65622
 25 H     0.21519    0.72213   -0.04541
 26 H     0.44417   -0.71463    0.92172
 27 H     1.02767   -0.23488    1.27223
 28 H    -0.35815    1.64982   -0.20520
 29 H     0.31983   -0.52557   -0.35225
 30 H     0.17776    0.27945   -1.21004
 31 H    -0.57552    0.27889   -0.48355
 32 H     0.18519   -0.05298   -0.83074
 33 H     0.31547    0.15710    0.83733
 34 H     0.68137   -0.36877    0.31555
 35 H     1.76056   -0.31455   -0.51099
 36 H     0.34924   -0.28952   -1.34587
 37 H    -0.42192   -0.27187   -0.07418
 38 H     0.94835    0.21561   -0.03313
 39 H     0.40108   -0.28279   -0.70462
 40 H    -0.89824   -0.49761    0.61766
 41 H     0.15044   -0.53143    0.15496
 42 H    -0.17020    1.11912   -0.84871
 43 H     1.68662    0.27438   -0.50202
 44 H     1.89089    3.61769   -0.57450
 45 H     1.78680   -1.12192    0.75950
 46 H     0.11912    0.19971   -0.14513
 47 H    -0.23749    0.63694   -0.75904
 48 H     1.01875   -0.15857   -0.15746
 49 H     0.68404    1.48792   -0.20489
 50 H    -0.69975    0.20738   -0.25391
 51 H    -0.51304    0.17394    0.19662
 52 H    -1.70423   -0.11285    0.12485
 53 H     1.03848    0.63043   -1.14064
 54 H     0.45271    0.87122    0.15332
 55 H     0.53662   -0.66985    0.82591
 56 H   -35.37534   33.32248  -27.45626
 57 H    -0.79538    1.22575   -2.46191
 58 H    -1.71463    1.46380   -0.92885
 59 H    -0.60406   -0.00867   -0.49336
 60 H    -0.08499    0.57226   -0.91535
 61 H     0.27427    0.40810   -0.46679
 62 H     0.10868   -1.59789    0.23642
 63 H     1.18353    0.57131    0.35463
 64 H     0.28316   -0.13429   -1.32412
 65 H    -0.32862   -0.42931   -1.15538
 66 H     0.20045    0.12035    0.34311
 67 H     0.14279   -0.18241    0.18196
 68 H     0.84985    1.38167    0.46811
 69 H     0.30764   -1.19152    0.33825
 70 H     0.43801    0.26860    0.11451
 71 H     0.53097    1.34602    0.81199
 72 Na   24.83528  -43.78597   19.77357

System changes: positions 

Initializing position-dependent things.

Density initialized from wave functions
       .---------------------.  
      /|                     |  
     / |     H               |  
    /  |     H             H |  
   /   | H  O              O |  
  / H OH       OHH    H      |  
 *H   H|      H O HHO        |  
 |     O      H   H  OH      |  
 | H  O| H   OH           H  |  
 |    H|  HHO  H    HH O     |  
 |     O   H      O O  HO    |  
 |     .Ha--H-O-H--H--H------.  
 |    /        H   O       H/   
 |   /H  OH  O     H       /    
 |  /  H     H            /     
 | /            HO       /      
 |/  OH            H    /       
 *---------------------*        

Positions:
   0 O      2.817230    5.587847    3.143870    ( 0.0000,  0.0000,  0.0000)
   1 O      3.097832    9.483399    3.086824    ( 0.0000,  0.0000,  0.0000)
   2 O      0.553974    5.697085    0.342446    ( 0.0000,  0.0000,  0.0000)
   3 O      3.936511    2.777813    1.807191    ( 0.0000,  0.0000,  0.0000)
   4 O      6.475032    3.278809    2.502173    ( 0.0000,  0.0000,  0.0000)
   5 O      4.454091    6.049666    5.300008    ( 0.0000,  0.0000,  0.0000)
   6 O      2.310538    9.373661    5.598657    ( 0.0000,  0.0000,  0.0000)
   7 O      5.798211    7.627130    1.605336    ( 0.0000,  0.0000,  0.0000)
   8 O      6.338813    1.348345    9.701659    ( 0.0000,  0.0000,  0.0000)
   9 O      2.583941    7.110966    7.059533    ( 0.0000,  0.0000,  0.0000)
  10 O      1.630969    9.169233    0.835720    ( 0.0000,  0.0000,  0.0000)
[...]
  1. axis:    yes    8.956370    0.000000    0.000000    44     0.2036
  2. axis:    yes    0.000000    8.956370    0.000000    44     0.2036
  3. axis:    yes    0.000000    0.000000    8.956370    44     0.2036

  Lengths:   8.956370   8.956370   8.956370
  Angles:   90.000000  90.000000  90.000000

Effective grid spacing dv^(1/3) = 0.2036

                     log10-error:    total        iterations:
           time      wfs    density  energy       fermi  poisson
iter:   1  23:06:45          +inf  -326.554111    2      1      
iter:   2  23:06:46         -3.11  -326.555040    3      1      
iter:   3  23:06:46         -3.20  -326.556273    2      1      
iter:   4  23:06:47         -3.29  -326.555818    2      1      
iter:   5  23:06:48         -3.36  -326.555493    2      1      
iter:   6  23:06:48         -3.53  -326.555435    2      1      
iter:   7  23:06:49         -3.70  -326.555541    2      1      
iter:   8  23:06:49         -3.77  -326.555611    2      1      
iter:   9  23:06:50         -4.03  -326.555492    2      1      

Converged after 9 iterations.

Dipole moment: (5.702731, -14.264473, 8.071932) |e|*Ang

Energy contributions relative to reference atoms: (reference = -53998.593513)

Kinetic:       +282.983723
Potential:     -323.811412
External:        +0.000000
XC:            -294.911666
Entropy (-ST):   -0.337157
Local:           +9.352441
--------------------------
Free energy:   -326.724071
Extrapolated:  -326.555492

Fermi level: -2.48486

 Band  Eigenvalues  Occupancy
    0    -23.90243    2.00000
    1    -23.28136    2.00000
    2    -23.23792    2.00000
    3    -22.52780    2.00000
    4    -21.96145    2.00000
    5    -21.90537    2.00000
    6    -21.74169    2.00000
    7    -21.70699    2.00000
    8    -21.60010    2.00000
    9    -21.54905    2.00000
   10    -21.48579    2.00000
   11    -21.41602    2.00000
   12    -21.30863    2.00000
   13    -21.22052    2.00000
   14    -21.10402    2.00000
   15    -20.94198    2.00000
   16    -20.90313    2.00000
   17    -20.83169    2.00000
   18    -20.68036    2.00000
   19    -20.54714    2.00000
   20    -20.49920    2.00000
   21    -20.44819    2.00000
   22    -20.29187    2.00000
   23    -20.25581    2.00000
   24    -20.21893    2.00000
   25    -19.97962    2.00000
   26    -18.02025    2.00000
   27    -10.48003    2.00000
   28    -10.29445    2.00000
   29    -10.20452    2.00000
   30     -9.84957    2.00000
   31     -9.79139    2.00000
   32     -9.75144    2.00000
   33     -9.63432    2.00000
   34     -9.54220    2.00000
   35     -9.36717    2.00000
   36     -9.19069    2.00000
   37     -9.07725    2.00000
   38     -9.06269    2.00000
   39     -8.97693    2.00000
   40     -8.89576    2.00000
   41     -8.87053    2.00000
   42     -8.82809    2.00000
   43     -8.74280    2.00000
   44     -8.55901    2.00000
   45     -8.53204    2.00000
   46     -8.30463    2.00000
   47     -8.25023    2.00000
   48     -8.14935    2.00000
   49     -7.93598    2.00000
   50     -7.80934    2.00000
   51     -7.33345    2.00000
   52     -7.16401    2.00000
   53     -7.02034    2.00000
   54     -6.80611    2.00000
   55     -6.78500    2.00000
   56     -6.66299    2.00000
   57     -6.48036    2.00000
   58     -6.45849    2.00000
   59     -6.08667    2.00000
   60     -5.91548    2.00000
   61     -5.88948    2.00000
   62     -5.77212    2.00000
   63     -5.68516    2.00000
   64     -5.60500    2.00000
   65     -5.46631    2.00000
   66     -5.28541    2.00000
   67     -5.22098    2.00000
   68     -5.06683    2.00000
   69     -4.97310    2.00000
   70     -4.92442    2.00000
   71     -4.78058    2.00000
   72     -4.75052    2.00000
   73     -4.53742    2.00000
   74     -4.37542    2.00000
   75     -4.13438    2.00000
   76     -3.99395    2.00000
   77     -3.94727    2.00000
   78     -3.85761    2.00000
   79     -3.77612    2.00000
   80     -3.71197    1.99999
   81     -3.61538    1.99998
   82     -3.60922    1.99997
   83     -3.52125    1.99994
   84     -3.44090    1.99986
   85     -3.40664    1.99980
   86     -3.36369    1.99970
   87     -3.29846    1.99941
   88     -3.25324    1.99908
   89     -3.23390    1.99888
   90     -3.20348    1.99849
   91     -3.12943    1.99683
   92     -3.09639    1.99559
   93     -2.99553    1.98796
   94     -2.93726    1.97854
   95     -2.92474    1.97572
   96     -2.87637    1.96090
   97     -2.72200    1.82925
   98     -2.63988    1.64990
   99     -2.40723    0.63022
  100      2.20517    0.00000
  101      3.81242    0.00000
  102      3.96800    0.00000
  103      4.28134    0.00000
  104      4.36419    0.00000
  105      4.71869    0.00000
  106      5.12779    0.00000
  107      5.62840    0.00000
  108      5.76814    0.00000
  109      5.87121    0.00000
  110      5.92945    0.00000
  111      6.16959    0.00000
  112      6.30443    0.00000
  113      6.37265    0.00000
  114      6.53586    0.00000
  115      6.56115    0.00000
  116      6.83172    0.00000
  117      6.87852    0.00000
  118      7.26756    0.00000
  119      7.44399    0.00000
  120      7.55940    0.00000
  121      7.82812    0.00000
  122      8.10866    0.00000

Gap: 0.233 eV
Transition (v -> c):
  (s=0, k=0, n=98, [0.00, 0.00, 0.00]) -> (s=0, k=0, n=99, [0.00, 0.00, 0.00])

Forces in eV/Ang:
  0 O    -1.42461   -0.96003    0.12471
  1 O    -0.73938   -0.86656    1.60252
  2 O     0.66878   -0.35130   -0.18748
  3 O     0.68077    0.45760    0.42264
  4 O     0.44709   -0.97878   -0.81636
  5 O    -0.19203    0.32190   -0.83358
  6 O     0.58853    0.54760   -1.00870
  7 O     1.32822    0.16538   -0.53968
  8 O     0.59298   -0.97827   -1.05704
  9 O     1.81581    0.26953    0.20122
 10 O     2.62116    1.86871    0.63490
 11 O     1.19149    0.25601   -2.35022
 12 O     0.31191    1.62085    0.04563
 13 O     0.01694    0.60493    0.38133
 14 O    -0.49976    0.60661   -1.21325
 15 O     1.14945    0.99151   -0.55339
 16 O    -2.14006    1.75264   -2.98478
 17 O     0.04011    1.30434    0.79985
 18 O    -0.50230    0.51456   -1.12839
 19 O    -0.33994   -0.40413   -0.68352
 20 O    -0.21307   -0.57263    0.52670
 21 O     0.49487   -0.63070   -0.16513
 22 O     0.11147    0.84252   -0.37710
 23 O     0.87300    0.28182    0.43162
 24 H     0.45276    0.18603    0.11687
 25 H     0.87281    1.03842   -0.24204
 26 H     0.18461    0.49431   -0.38459
 27 H     1.74246    0.95645    0.34861
 28 H    -0.42002    0.58926   -0.03510
 29 H    -0.41429   -0.80475    0.21050
 30 H    -0.33278   -0.17246   -0.35244
 31 H    -0.69995    0.01611    0.28288
 32 H     0.03688    0.63795    0.67624
 33 H    -0.37834    0.46722    0.03512
 34 H     0.21376   -0.23558    0.86097
 35 H    -0.23103    0.05842   -0.18274
 36 H    -0.12937   -0.20093    0.71073
 37 H    -0.25081   -0.47885    0.04854
 38 H    -1.12812    0.09851    0.09591
 39 H     0.10075    0.00008    0.59571
 40 H     0.19886   -0.75017    1.09744
 41 H    -0.13566    0.72300   -0.20615
 42 H    -0.41724   -0.05152   -0.00077
 43 H    -1.49129   -0.32943   -0.31210
 44 H     0.03791   -0.40832    0.77999
 45 H     0.19571    0.45216    0.97389
 46 H    -1.37101    0.27734    1.01396
 47 H    -0.08176   -0.99532    1.30085
 48 H    -0.70703   -0.31411   -0.40551
 49 H    -0.04668   -0.98988    0.72458
 50 H     0.19420   -0.50420   -0.38921
 51 H     0.68906   -0.61042    0.42778
 52 H     0.49967   -0.30841    0.52508
 53 H    -0.15102   -0.11368    0.80965
 54 H    -0.62915   -0.95591    0.73574
 55 H    -0.69151   -0.44330   -0.34087
 56 H    -0.04059   -0.24340   -0.03864
 57 H     0.18389   -0.19948    2.27388
 58 H     0.15091   -1.29027   -0.20593
 59 H     0.02289   -0.49339   -0.64949
 60 H     0.45403    0.30005    0.89837
 61 H    -0.34222   -0.80169   -0.09743
 62 H     0.27929    0.74231   -0.95791
 63 H    -0.80292    0.33756    0.30229
 64 H     0.15779    1.09527   -0.61024
 65 H     0.19642   -0.07296    0.07974
 66 H    -0.13117   -0.03799   -0.33445
 67 H     0.12824   -0.10193    0.10417
 68 H    -0.36172   -0.63746    0.49375
 69 H    -0.28155    0.00892   -0.41523
 70 H     0.08341   -0.07203   -0.19353
 71 H     0.05480   -0.11528    0.11966
 72 Na   -2.20870   -2.53975   -1.57006

System changes: positions 

Initializing position-dependent things.

Density initialized from wave functions
       .---------------------.  
      /|                     |  
     / |     H               |  
    /  |    O             HH |  
   /   |  H  H             O |  
  / H O|      HOH HH  HH     |  
 *   H H        O HHO        |  
 |     O      H      O       |  
 | H  O|  H  O H      H   H  |  
 |    H|  HHO   H    H O     |  
 |     O  H  H   OH O H O    |  
 |     .Ha--H-O-H--H--H------.  
 |   H/        H   O        /   
 |   /H  OH  O     H       /    
 |  /  H     H            /     
 | /            HO       /      
 |/   OH                /       
 *---------------------*        

Positions:
   0 O      2.782803    5.549390    3.113846    ( 0.0000,  0.0000,  0.0000)
   1 O      3.077771    9.480335    3.053161    ( 0.0000,  0.0000,  0.0000)
   2 O      0.523800    5.707374    0.349571    ( 0.0000,  0.0000,  0.0000)
   3 O      3.926841    2.785321    1.844715    ( 0.0000,  0.0000,  0.0000)
   4 O      6.423960    3.255531    2.509439    ( 0.0000,  0.0000,  0.0000)
   5 O      4.422818    6.045029    5.324551    ( 0.0000,  0.0000,  0.0000)
   6 O      2.316377    9.357381    5.578047    ( 0.0000,  0.0000,  0.0000)
   7 O      5.776811    7.649849    1.610558    ( 0.0000,  0.0000,  0.0000)
   8 O      6.330511    1.364472    9.709768    ( 0.0000,  0.0000,  0.0000)
   9 O      2.613885    7.142526    7.120458    ( 0.0000,  0.0000,  0.0000)
  10 O      1.891273    9.253179    1.057131    ( 0.0000,  0.0000,  0.0000)
  11 O      1.532439    3.939339    6.036337    ( 0.0000,  0.0000,  0.0000)
  12 O      5.060898    2.922649   -0.970688    ( 0.0000,  0.0000,  0.0000)
  13 O      0.245805    5.880249    4.439534    ( 0.0000,  0.0000,  0.0000)
  14 O      1.339186    2.657316   -0.436236    ( 0.0000,  0.0000,  0.0000)
  15 O      5.304411    8.372373    4.147582    ( 0.0000,  0.0000,  0.0000)
  16 O     -0.999735    0.454824   -0.949859    ( 0.0000,  0.0000,  0.0000)
  17 O      6.578740    4.838419    6.303795    ( 0.0000,  0.0000,  0.0000)
  18 O      4.025003    2.663883    5.723136    ( 0.0000,  0.0000,  0.0000)
  19 O     -0.381304   10.618515    5.924437    ( 0.0000,  0.0000,  0.0000)
  20 O     -0.248481    6.809242   -1.842571    ( 0.0000,  0.0000,  0.0000)
  21 O      3.231608    7.276328    0.760899    ( 0.0000,  0.0000,  0.0000)
  22 O      7.730885    5.694592    2.416026    ( 0.0000,  0.0000,  0.0000)
  23 O     -2.732511   10.717515    4.721957    ( 0.0000,  0.0000,  0.0000)
  24 H      1.870254    5.833756    3.492457    ( 0.0000,  0.0000,  0.0000)
  25 H      2.583788    4.545080    3.044294    ( 0.0000,  0.0000,  0.0000)
  26 H      3.325830   10.358270    2.649028    ( 0.0000,  0.0000,  0.0000)
  27 H      2.245466    9.174246    2.448682    ( 0.0000,  0.0000,  0.0000)
  28 H      0.921582    4.785083    0.476859    ( 0.0000,  0.0000,  0.0000)
  29 H      0.008682    5.951426    1.181999    ( 0.0000,  0.0000,  0.0000)
  30 H      4.065473    3.104210    0.916659    ( 0.0000,  0.0000,  0.0000)
  31 H      4.910596    2.989713    2.193108    ( 0.0000,  0.0000,  0.0000)
  32 H      6.558003    2.524706    1.747641    ( 0.0000,  0.0000,  0.0000)
  33 H      6.575663    2.657167    3.330483    ( 0.0000,  0.0000,  0.0000)
  34 H      3.905480    5.876150    4.442426    ( 0.0000,  0.0000,  0.0000)
  35 H      3.738465    6.275043    6.025956    ( 0.0000,  0.0000,  0.0000)
  36 H      2.560447    9.437180    4.532664    ( 0.0000,  0.0000,  0.0000)
  37 H      1.661952   10.090578    5.689961    ( 0.0000,  0.0000,  0.0000)
  38 H      5.846961    7.920844    2.577445    ( 0.0000,  0.0000,  0.0000)
  39 H      4.826756    7.530722    1.292365    ( 0.0000,  0.0000,  0.0000)
  40 H      6.931246    1.208301    8.789405    ( 0.0000,  0.0000,  0.0000)
  41 H      6.164743    0.379977   10.010621    ( 0.0000,  0.0000,  0.0000)
  42 H      2.712141    8.008623    6.604955    ( 0.0000,  0.0000,  0.0000)
  43 H      1.655880    6.979266    7.137329    ( 0.0000,  0.0000,  0.0000)
  44 H      2.042245   10.109126    0.523472    ( 0.0000,  0.0000,  0.0000)
  45 H      2.503538    8.466122    0.677667    ( 0.0000,  0.0000,  0.0000)
  46 H      2.489339    3.680864    5.639628    ( 0.0000,  0.0000,  0.0000)
  47 H      1.178669    4.641233    5.320926    ( 0.0000,  0.0000,  0.0000)
  48 H      5.741503    3.654724   -1.156206    ( 0.0000,  0.0000,  0.0000)
  49 H      5.592673    2.308188   -0.416303    ( 0.0000,  0.0000,  0.0000)
  50 H      0.010248    6.477686    5.222505    ( 0.0000,  0.0000,  0.0000)
  51 H     -0.544862    5.938588    3.755675    ( 0.0000,  0.0000,  0.0000)
  52 H      0.336634    2.721608   -0.709188    ( 0.0000,  0.0000,  0.0000)
  53 H      1.702856    3.064957   -1.307470    ( 0.0000,  0.0000,  0.0000)
  54 H      5.030796    7.550260    4.609930    ( 0.0000,  0.0000,  0.0000)
  55 H      4.497002    8.863453    3.815585    ( 0.0000,  0.0000,  0.0000)
  56 H     -0.959494    3.420735   -1.002787    ( 0.0000,  0.0000,  0.0000)
  57 H     -0.723147    0.954353   -2.080005    ( 0.0000,  0.0000,  0.0000)
  58 H      5.832558    5.526449    6.079533    ( 0.0000,  0.0000,  0.0000)
  59 H      7.189305    5.447359    6.836607    ( 0.0000,  0.0000,  0.0000)
  60 H      4.359986    2.676760    6.664868    ( 0.0000,  0.0000,  0.0000)
  61 H      3.498357    1.829338    5.693398    ( 0.0000,  0.0000,  0.0000)
  62 H     -1.374740   10.725824    5.579434    ( 0.0000,  0.0000,  0.0000)
  63 H      0.268679   11.391304    5.835774    ( 0.0000,  0.0000,  0.0000)
  64 H     -0.176747    6.133563   -1.025711    ( 0.0000,  0.0000,  0.0000)
  65 H     -0.886112    7.552545   -1.590641    ( 0.0000,  0.0000,  0.0000)
  66 H      3.135079    6.941653   -0.185858    ( 0.0000,  0.0000,  0.0000)
  67 H      2.823382    6.600842    1.378149    ( 0.0000,  0.0000,  0.0000)
  68 H      7.318129    4.806241    2.200233    ( 0.0000,  0.0000,  0.0000)
  69 H      6.995442    6.356749    2.253881    ( 0.0000,  0.0000,  0.0000)
  70 H     -3.565352   11.164587    5.144599    ( 0.0000,  0.0000,  0.0000)
  71 H     -2.997604    9.746812    4.578429    ( 0.0000,  0.0000,  0.0000)
  72 Na     0.506616   -0.195766    0.007732    ( 0.0000,  0.0000,  0.0000)

Unit cell:
           periodic     x           y           z      points  spacing
  1. axis:    yes    8.956370    0.000000    0.000000    44     0.2036
  2. axis:    yes    0.000000    8.956370    0.000000    44     0.2036
  3. axis:    yes    0.000000    0.000000    8.956370    44     0.2036

  Lengths:   8.956370   8.956370   8.956370
  Angles:   90.000000  90.000000  90.000000

Effective grid spacing dv^(1/3) = 0.2036

                     log10-error:    total        iterations:
           time      wfs    density  energy       fermi  poisson
iter:   1  23:06:52          +inf  -326.597087    3      1      
iter:   2  23:06:53         -3.10  -326.595132    3      1      
iter:   3  23:06:53         -3.16  -326.596503    2      1      
iter:   4  23:06:54         -3.25  -326.596673    2      1      
iter:   5  23:06:54         -3.36  -326.596190    2      1      
iter:   6  23:06:55         -3.54  -326.596033    2      1      
iter:   7  23:06:56         -3.70  -326.596216    2      1      
iter:   8  23:06:56         -3.77  -326.596178    2      1      
iter:   9  23:06:57         -4.03  -326.596272    2      1      

Converged after 9 iterations.

Dipole moment: (5.670935, -14.163365, 8.117908) |e|*Ang

Energy contributions relative to reference atoms: (reference = -53998.593513)

Kinetic:       +281.880045
Potential:     -322.967293
External:        +0.000000
XC:            -294.694902
Entropy (-ST):   -0.339532
Local:           +9.355644
--------------------------
Free energy:   -326.766038
Extrapolated:  -326.596272

Fermi level: -2.48115

 Band  Eigenvalues  Occupancy
    0    -23.89877    2.00000
    1    -23.29736    2.00000
    2    -23.25578    2.00000
    3    -22.53384    2.00000
    4    -21.95046    2.00000
    5    -21.89351    2.00000
    6    -21.73683    2.00000
    7    -21.70043    2.00000
    8    -21.59106    2.00000
    9    -21.53994    2.00000
   10    -21.48496    2.00000
   11    -21.42153    2.00000
   12    -21.31345    2.00000
   13    -21.21735    2.00000
   14    -21.08713    2.00000
   15    -20.94085    2.00000
   16    -20.90563    2.00000
   17    -20.82871    2.00000
   18    -20.68249    2.00000
   19    -20.53902    2.00000
   20    -20.49428    2.00000
   21    -20.45552    2.00000
   22    -20.28409    2.00000
   23    -20.24668    2.00000
   24    -20.21032    2.00000
   25    -19.98202    2.00000
   26    -18.01740    2.00000
   27    -10.47855    2.00000
   28    -10.30643    2.00000
   29    -10.22078    2.00000
   30     -9.83611    2.00000
   31     -9.77913    2.00000
   32     -9.73842    2.00000
   33     -9.62765    2.00000
   34     -9.54135    2.00000
   35     -9.35763    2.00000
   36     -9.18159    2.00000
   37     -9.07341    2.00000
   38     -9.06322    2.00000
   39     -8.97223    2.00000
   40     -8.89208    2.00000
   41     -8.87198    2.00000
   42     -8.82863    2.00000
   43     -8.74686    2.00000
   44     -8.56886    2.00000
   45     -8.52719    2.00000
   46     -8.30830    2.00000
   47     -8.25298    2.00000
   48     -8.14383    2.00000
   49     -7.93862    2.00000
   50     -7.79036    2.00000
   51     -7.32731    2.00000
   52     -7.16539    2.00000
   53     -7.01697    2.00000
   54     -6.79925    2.00000
   55     -6.78415    2.00000
   56     -6.66366    2.00000
   57     -6.47838    2.00000
   58     -6.45745    2.00000
   59     -6.08484    2.00000
   60     -5.91138    2.00000
   61     -5.88974    2.00000
   62     -5.77211    2.00000
   63     -5.68406    2.00000
   64     -5.60426    2.00000
   65     -5.46179    2.00000
   66     -5.28413    2.00000
   67     -5.21652    2.00000
   68     -5.06221    2.00000
   69     -4.97902    2.00000
   70     -4.92260    2.00000
   71     -4.77940    2.00000
   72     -4.74154    2.00000
   73     -4.53876    2.00000
   74     -4.37559    2.00000
   75     -4.13897    2.00000
   76     -3.99209    2.00000
   77     -3.94729    2.00000
   78     -3.85845    2.00000
   79     -3.77300    2.00000
   80     -3.70543    1.99999
   81     -3.60973    1.99997
   82     -3.60609    1.99997
   83     -3.51624    1.99994
   84     -3.43883    1.99986
   85     -3.40601    1.99981
   86     -3.36007    1.99970
   87     -3.29842    1.99944
   88     -3.24862    1.99907
   89     -3.23133    1.99890
   90     -3.20229    1.99852
   91     -3.12644    1.99685
   92     -3.09317    1.99561
   93     -2.98952    1.98768
   94     -2.93249    1.97832
   95     -2.92262    1.97609
   96     -2.87586    1.96211
   97     -2.71256    1.82008
   98     -2.63603    1.64949
   99     -2.40545    0.63861
  100      2.20448    0.00000
  101      3.81159    0.00000
  102      3.96618    0.00000
  103      4.27648    0.00000
  104      4.36481    0.00000
  105      4.71884    0.00000
  106      5.12598    0.00000
  107      5.62647    0.00000
  108      5.76266    0.00000
  109      5.86833    0.00000
  110      5.93415    0.00000
  111      6.16362    0.00000
  112      6.30106    0.00000
  113      6.37493    0.00000
  114      6.53682    0.00000
  115      6.55714    0.00000
  116      6.83467    0.00000
  117      6.87718    0.00000
  118      7.26410    0.00000
  119      7.44492    0.00000
  120      7.55611    0.00000
  121      7.82534    0.00000
  122      8.10430    0.00000

Gap: 0.231 eV
Transition (v -> c):
  (s=0, k=0, n=98, [0.00, 0.00, 0.00]) -> (s=0, k=0, n=99, [0.00, 0.00, 0.00])
