
  ___ ___ ___ _ _ _  
 |   |   |_  | | | | 
 | | | | | . | | | | 
 |__ |  _|___|_____|  19.8.1
 |___|_|             

User:   ericlin@hebbe12-1
Date:   Mon Feb  3 22:52:22 2020
Arch:   x86_64
Pid:    24225
Python: 3.7.2
gpaw:   /apps/Hebbe7/software/MPI/intel/2019.1.144-GCC-8.2.0-2.31.1/impi/2018.4.274/GPAW/19.8.1-Python-3.7.2/lib/python3.7/site-packages/gpaw
_gpaw:  /apps/Hebbe7/software/MPI/intel/2019.1.144-GCC-8.2.0-2.31.1/impi/2018.4.274/GPAW/19.8.1-Python-3.7.2/bin/
        gpaw-python
ase:    /apps/Hebbe7/software/MPI/intel/2019.1.144-GCC-8.2.0-2.31.1/impi/2018.4.274/ASE/3.18.0-Python-3.7.2/lib/python3.7/site-packages/ase (version 3.18.0)
numpy:  /apps/Hebbe7/software/MPI/intel/2019.1.144-GCC-8.2.0-2.31.1/impi/2018.4.274/SciPy-bundle/2019.03/lib/python3.7/site-packages/numpy (version 1.16.2)
scipy:  /apps/Hebbe7/software/MPI/intel/2019.1.144-GCC-8.2.0-2.31.1/impi/2018.4.274/SciPy-bundle/2019.03/lib/python3.7/site-packages/scipy (version 1.2.1)
libxc:  4.3.4
units:  Angstrom and eV
cores:  4

Input parameters:
  h: 0.25
  mode: {ecut: 350.0,
         gammacentered: False,
         name: pw}
  nbands: 15
  occupations: {name: fermi-dirac,
                width: 0.05}
  setups: {Na: 1}

System changes: positions, numbers, cell, pbc, initial_charges, initial_magmoms 

Initialize ...

Na-setup:
  name: Sodium
  id: fa5c50181d04022fed15b2593599c257
  Z: 11
  valence: 1
  core: 10
  charge: 0.0
  file: /apps/Common/Core/GPAW-setups/0.9.20000/Na.1.LDA.gz
  compensation charges: gauss, rc=0.43, lmax=2
  cutoffs: 2.36(filt), 3.60(core),
  valence states:
                energy  radius
    3s(1.00)    -2.819   1.349
    3p(0.00)    -0.774   1.349
    *s          24.392   1.349

  Using partial waves for Na as LCAO basis

Reference energy: -26392.251304

Spin-paired calculation

Occupation numbers:
  Fermi-Dirac: width=0.0500 eV

Convergence criteria:
  Maximum total energy change: 0.0005 eV / electron
  Maximum integral of absolute density change: 0.0001 electrons
  Maximum integral of absolute eigenstate change: 4e-08 eV^2
  Maximum number of iterations: 333

Symmetries present (total): 1

  ( 1  0  0)
  ( 0  1  0)
  ( 0  0  1)

1 k-point (Gamma)
1 k-point in the irreducible part of the Brillouin zone
       k-points in crystal coordinates                weights
   0:     0.00000000    0.00000000    0.00000000          1/1

Wave functions: Plane wave expansion
  Cutoff energy: 350.000 eV
  Number of coefficients: 61037 (reduced to 30519)
  Pulay-stress correction: 0.000000 eV/Ang^3 (de/decut=0.000000)
  Using FFTW library
  ScaLapack parameters: grid=1x1, blocksize=None
  Wavefunction extrapolation:
    Improved wavefunction reuse through dual PAW basis 

Eigensolver
   Davidson(niter=2, smin=None, normalize=True) 

Densities:
  Coarse grid: 64*64*64 grid
  Fine grid: 128*128*128 grid
  Total Charge: 0.000000 

Density mixing:
  Method: separate
  Backend: pulay
  Linear mixing parameter: 0.05
  Mixing with 5 old densities
  Damping of long wave oscillations: 50 

Hamiltonian:
  XC and Coulomb potentials evaluated on a 128*128*128 grid
  Using the LDA Exchange-Correlation functional
 

Memory estimate:
  Process memory now: 278.92 MiB
  Calculator: 61.61 MiB
    Density: 30.83 MiB
      Arrays: 13.00 MiB
      Localized functions: 12.83 MiB
      Mixer: 5.00 MiB
    Hamiltonian: 8.76 MiB
      Arrays: 8.50 MiB
      XC: 0.00 MiB
      Poisson: 0.00 MiB
      vbar: 0.26 MiB
    Wavefunctions: 22.02 MiB
      Arrays psit_nG: 6.99 MiB
      Eigensolver: 9.33 MiB
      Projections: 0.00 MiB
      Projectors: 0.41 MiB
      PW-descriptor: 5.30 MiB

Total number of cores used: 4
Domain decomposition: 2 x 2 x 1

Number of atoms: 6
Number of atomic orbitals: 24
Number of bands in calculation: 15
Bands to converge: occupied states only
Number of valence electrons: 6

... initialized

Initializing position-dependent things.

Density initialized from atomic densities
Creating initial wave functions:
  15 bands from LCAO basis set

           .--------------------------------------.  
          /|                                      |  
         / |                                      |  
        /  |                                      |  
       /   |                                      |  
      /    |                                      |  
     /     |                                      |  
    /      |                                      |  
   /       |                                      |  
  /        |                                      |  
 *         |           Na                         |  
 |         |                                      |  
 |         |                Na                    |  
 |         |                                      |  
 |         |            Na                        |  
 |         |                    Na                |  
 |         |                                      |  
 |         |                Na                    |  
 |         |                                      |  
 |         |             Na                       |  
 |         .--------------------------------------.  
 |        /                                      /   
 |       /                                      /    
 |      /                                      /     
 |     /                                      /      
 |    /                                      /       
 |   /                                      /        
 |  /                                      /         
 | /                                      /          
 |/                                      /           
 *--------------------------------------*            

Positions:
   0 Na    11.424955    5.046215    9.661160    ( 0.0000,  0.0000,  0.0000)
   1 Na     9.091214    7.135542   10.719357    ( 0.0000,  0.0000,  0.0000)
   2 Na     6.710298    9.263471   11.516303    ( 0.0000,  0.0000,  0.0000)
   3 Na     7.680133    8.011559    5.125248    ( 0.0000,  0.0000,  0.0000)
   4 Na     9.624253    6.463545    7.292195    ( 0.0000,  0.0000,  0.0000)
   5 Na     7.055205    8.690646    8.283979    ( 0.0000,  0.0000,  0.0000)

Unit cell:
           periodic     x           y           z      points  spacing
  1. axis:    no    16.000000    0.000000    0.000000    64     0.2500
  2. axis:    no     0.000000   16.000000    0.000000    64     0.2500
  3. axis:    no     0.000000    0.000000   16.000000    64     0.2500

  Lengths:  16.000000  16.000000  16.000000
  Angles:   90.000000  90.000000  90.000000

Effective grid spacing dv^(1/3) = 0.2500

                     log10-error:    total        iterations:
           time      wfs    density  energy       fermi  poisson
iter:   1  22:52:24  +0.41   +inf    -5.392215    2             
iter:   2  22:52:24  -1.07  -0.50    -5.394842    3             
iter:   3  22:52:24  -1.65  -0.52    -5.267931    6             
iter:   4  22:52:25  -2.08  -0.78    -5.267237    3             
iter:   5  22:52:25  -2.31  -0.88    -5.266536    3             
iter:   6  22:52:25  -2.69  -1.38    -5.268618    3             
iter:   7  22:52:26  -3.12  -1.60    -5.268173    2             
iter:   8  22:52:26  -3.43  -1.70    -5.267699    3             
iter:   9  22:52:27  -3.90  -2.39    -5.267687    2             
iter:  10  22:52:27  -4.26  -2.39    -5.267704    2             
iter:  11  22:52:27  -4.69  -2.71    -5.267697    2             
iter:  12  22:52:28  -5.06  -2.74    -5.267704    2             
iter:  13  22:52:28  -5.47  -2.95    -5.267703    1             
iter:  14  22:52:29  -5.87  -3.10    -5.267704    1             
iter:  15  22:52:29  -6.23  -3.13    -5.267703    1             
iter:  16  22:52:29  -6.66  -3.26    -5.267702    1             
iter:  17  22:52:30  -7.05  -3.46    -5.267702    1             
iter:  18  22:52:30  -7.46  -3.48    -5.267702    1             
iter:  19  22:52:31  -7.83  -3.46    -5.267702    1             
iter:  20  22:52:31  -8.24  -3.49    -5.267702    1             
iter:  21  22:52:31  -8.05  -3.52    -5.267702    1             
iter:  22  22:52:32  -8.81  -3.94    -5.267702    1             
iter:  23  22:52:32  -9.13  -4.00    -5.267702    1             
iter:  24  22:52:32  -9.80  -4.31    -5.267702    1             

Converged after 24 iterations.

Dipole moment: (0.017387, -0.008192, -0.011465) |e|*Ang

Energy contributions relative to reference atoms: (reference = -26392.251304)

Kinetic:        +11.798477
Potential:      -10.858906
External:        +0.000000
XC:              -6.206193
Entropy (-ST):   -0.000016
Local:           -0.001072
--------------------------
Free energy:     -5.267710
Extrapolated:    -5.267702

Fermi level: -2.37542

 Band  Eigenvalues  Occupancy
    0     -4.01733    2.00000
    1     -3.01344    1.99999
    2     -3.01093    1.99999
    3     -1.76691    0.00001
    4     -1.64148    0.00000
    5     -1.62153    0.00000
    6     -1.41919    0.00000
    7     -0.66881    0.00000
    8     -0.63792    0.00000
    9     -0.61964    0.00000
   10     -0.56331    0.00000
   11     -0.46248    0.00000
   12     -0.27708    0.00000
   13     -0.06746    0.00000
   14      0.26428    0.00000

Gap: 1.244 eV
Transition (v -> c):
  (s=0, k=0, n=2, [0.00, 0.00, 0.00]) -> (s=0, k=0, n=3, [0.00, 0.00, 0.00])
System changes: positions 

Initializing position-dependent things.

Density initialized from wave functions
           .--------------------------------------.  
          /|                                      |  
         / |                                      |  
        /  |                                      |  
       /   |                                      |  
      /    |                                      |  
     /     |                                      |  
    /      |                                      |  
   /       |                                      |  
  /        |                                      |  
 *         |                                      |  
 |         |          Na                          |  
 |         |                                      |  
 |         |       Na      Na                     |  
 |         |                Na                    |  
 |         |                                      |  
 |         |                                      |  
 |         |             Na   Na                  |  
 |         |                                      |  
 |         |                                      |  
 |         .--------------------------------------.  
 |        /                                      /   
 |       /                                      /    
 |      /                                      /     
 |     /                                      /      
 |    /                                      /       
 |   /                                      /        
 |  /                                      /         
 | /                                      /          
 |/                                      /           
 *--------------------------------------*            

Positions:
   0 Na     8.210231    9.489933    8.656516    ( 0.0000,  0.0000,  0.0000)
   1 Na     6.417931    8.101846   10.968460    ( 0.0000,  0.0000,  0.0000)
   2 Na     5.009862    9.947279    8.321395    ( 0.0000,  0.0000,  0.0000)
   3 Na     7.211492    9.790525    5.577356    ( 0.0000,  0.0000,  0.0000)
   4 Na     9.992557    7.848605    6.505352    ( 0.0000,  0.0000,  0.0000)
   5 Na     9.477264    6.754058    9.822530    ( 0.0000,  0.0000,  0.0000)

Unit cell:
           periodic     x           y           z      points  spacing
  1. axis:    no    16.000000    0.000000    0.000000    64     0.2500
  2. axis:    no     0.000000   16.000000    0.000000    64     0.2500
  3. axis:    no     0.000000    0.000000   16.000000    64     0.2500

  Lengths:  16.000000  16.000000  16.000000
  Angles:   90.000000  90.000000  90.000000

Effective grid spacing dv^(1/3) = 0.2500

                     log10-error:    total        iterations:
           time      wfs    density  energy       fermi  poisson
iter:   1  22:52:33  +0.39   +inf    -8.111413    25            
iter:   2  22:52:33  -0.54  -0.06    -7.730699    4             
iter:   3  22:52:34  -1.14  -0.09    -5.590117    28            
iter:   4  22:52:34  -1.79  -0.44    -5.532710    3             
iter:   5  22:52:35  -2.09  -0.49    -5.330126    6             
iter:   6  22:52:35  -2.55  -0.86    -5.356551    4             
iter:   7  22:52:35  -2.83  -0.91    -5.323162    4             
iter:   8  22:52:36  -3.53  -1.29    -5.324520    1             
iter:   9  22:52:36  -3.90  -1.37    -5.325563    3             
iter:  10  22:52:37  -4.32  -1.66    -5.325330    2             
iter:  11  22:52:37  -4.84  -1.83    -5.325313    2             
iter:  12  22:52:37  -5.10  -1.87    -5.325256    2             
iter:  13  22:52:38  -5.26  -2.02    -5.325468    2             
iter:  14  22:52:38  -5.79  -2.17    -5.325427    2             
iter:  15  22:52:38  -6.14  -2.30    -5.325392    2             
iter:  16  22:52:39  -6.69  -2.47    -5.325390    2             
iter:  17  22:52:39  -6.36  -2.54    -5.325393    1             
iter:  18  22:52:40  -7.33  -2.93    -5.325392    1             
iter:  19  22:52:40  -7.79  -2.97    -5.325392    1             
iter:  20  22:52:40  -7.83  -3.02    -5.325392    1             
iter:  21  22:52:41  -8.36  -3.11    -5.325393    1             
iter:  22  22:52:41  -8.10  -3.17    -5.325393    1             
iter:  23  22:52:42  -8.70  -3.31    -5.325393    1             
iter:  24  22:52:42  -8.10  -3.36    -5.325394    1             
iter:  25  22:52:42  -8.88  -3.56    -5.325394    1             
iter:  26  22:52:43  -8.54  -3.63    -5.325394    1             
iter:  27  22:52:43  -9.50  -4.09    -5.325394    1             

Converged after 27 iterations.

Dipole moment: (-0.066170, -0.105379, -0.045037) |e|*Ang

Energy contributions relative to reference atoms: (reference = -26392.251304)

Kinetic:        +11.980181
Potential:      -10.846221
External:        +0.000000
XC:              -6.457691
Entropy (-ST):   -0.000036
Local:           -0.001645
--------------------------
Free energy:     -5.325411
Extrapolated:    -5.325394

Fermi level: -2.34693

 Band  Eigenvalues  Occupancy
    0     -4.11771    2.00000
    1     -2.94461    1.99999
    2     -2.93661    1.99998
    3     -1.78385    0.00003
    4     -1.63163    0.00000
    5     -1.62291    0.00000
    6     -1.33647    0.00000
    7     -0.74456    0.00000
    8     -0.73319    0.00000
    9     -0.37303    0.00000
   10     -0.34494    0.00000
   11     -0.30129    0.00000
   12     -0.27394    0.00000
   13     -0.11091    0.00000
   14      0.23976    0.00000

Gap: 1.153 eV
Transition (v -> c):
  (s=0, k=0, n=2, [0.00, 0.00, 0.00]) -> (s=0, k=0, n=3, [0.00, 0.00, 0.00])
System changes: positions 

Initializing position-dependent things.

Density initialized from wave functions
           .--------------------------------------.  
          /|                                      |  
         / |                                      |  
        /  |                                      |  
       /   |                                      |  
      /    |                                      |  
     /     |                                      |  
    /      |                                      |  
   /       |                                      |  
  /        |                                      |  
 *         |           Na                         |  
 |         |                                      |  
 |         |                Na                    |  
 |         |                                      |  
 |         |            Na                        |  
 |         |                    Na                |  
 |         |                                      |  
 |         |                Na                    |  
 |         |                                      |  
 |         |             Na                       |  
 |         .--------------------------------------.  
 |        /                                      /   
 |       /                                      /    
 |      /                                      /     
 |     /                                      /      
 |    /                                      /       
 |   /                                      /        
 |  /                                      /         
 | /                                      /          
 |/                                      /           
 *--------------------------------------*            

Positions:
   0 Na    11.424955    5.046215    9.661160    ( 0.0000,  0.0000,  0.0000)
   1 Na     9.091214    7.135542   10.719357    ( 0.0000,  0.0000,  0.0000)
   2 Na     6.710298    9.263471   11.516303    ( 0.0000,  0.0000,  0.0000)
   3 Na     7.680133    8.011559    5.125248    ( 0.0000,  0.0000,  0.0000)
   4 Na     9.624253    6.463545    7.292195    ( 0.0000,  0.0000,  0.0000)
   5 Na     7.055205    8.690646    8.283979    ( 0.0000,  0.0000,  0.0000)

Unit cell:
           periodic     x           y           z      points  spacing
  1. axis:    no    16.000000    0.000000    0.000000    64     0.2500
  2. axis:    no     0.000000   16.000000    0.000000    64     0.2500
  3. axis:    no     0.000000    0.000000   16.000000    64     0.2500

  Lengths:  16.000000  16.000000  16.000000
  Angles:   90.000000  90.000000  90.000000

Effective grid spacing dv^(1/3) = 0.2500

                     log10-error:    total        iterations:
           time      wfs    density  energy       fermi  poisson
iter:   1  22:52:44  +0.57   +inf   -11.891775    25            
iter:   2  22:52:44  -0.31  +0.07   -11.045137    5             
iter:   3  22:52:44  -1.05  +0.05    -7.707755    25            
iter:   4  22:52:45  -1.44  -0.10    -5.577240    24            
iter:   5  22:52:45  -2.11  -0.43    -5.474845    3             
iter:   6  22:52:46  -1.94  -0.48    -5.314226    10            
iter:   7  22:52:46  -2.88  -0.78    -5.302068    2             
iter:   8  22:52:46  -2.85  -0.86    -5.265257    4             
iter:   9  22:52:47  -3.72  -1.21    -5.267537    3             
iter:  10  22:52:47  -3.84  -1.31    -5.267800    2             
iter:  11  22:52:48  -4.32  -1.66    -5.267829    2             
iter:  12  22:52:48  -4.98  -1.86    -5.267807    2             
iter:  13  22:52:48  -5.40  -1.92    -5.267805    1             
iter:  14  22:52:49  -5.41  -2.00    -5.267684    2             
iter:  15  22:52:49  -6.09  -2.17    -5.267646    1             
iter:  16  22:52:50  -6.32  -2.21    -5.267626    1             
iter:  17  22:52:50  -6.07  -2.25    -5.267676    2             
iter:  18  22:52:50  -5.85  -2.40    -5.267711    2             
iter:  19  22:52:51  -6.36  -2.58    -5.267703    2             
iter:  20  22:52:51  -7.04  -3.06    -5.267702    1             
iter:  21  22:52:52  -7.64  -3.14    -5.267702    1             
iter:  22  22:52:52  -7.72  -3.38    -5.267702    1             
iter:  23  22:52:52  -8.43  -3.54    -5.267702    1             
iter:  24  22:52:53  -8.97  -3.93    -5.267702    1             
iter:  25  22:52:53  -9.11  -4.05    -5.267702    1             

Converged after 25 iterations.

Dipole moment: (0.017388, -0.008175, -0.011604) |e|*Ang

Energy contributions relative to reference atoms: (reference = -26392.251304)

Kinetic:        +11.793599
Potential:      -10.855063
External:        +0.000000
XC:              -6.205811
Entropy (-ST):   -0.000016
Local:           -0.000419
--------------------------
Free energy:     -5.267710
Extrapolated:    -5.267702

Fermi level: -2.37542

 Band  Eigenvalues  Occupancy
    0     -4.01734    2.00000
    1     -3.01342    1.99999
    2     -3.01093    1.99999
    3     -1.76693    0.00001
    4     -1.64145    0.00000
    5     -1.62152    0.00000
    6     -1.41919    0.00000
    7     -0.66880    0.00000
    8     -0.63792    0.00000
    9     -0.61964    0.00000
   10     -0.56331    0.00000
   11     -0.46247    0.00000
   12     -0.27706    0.00000
   13     -0.06747    0.00000
   14      0.26434    0.00000

Gap: 1.244 eV
Transition (v -> c):
  (s=0, k=0, n=2, [0.00, 0.00, 0.00]) -> (s=0, k=0, n=3, [0.00, 0.00, 0.00])

Forces in eV/Ang:
  0 Na   -0.00034    0.00063    0.00280
  1 Na    0.00087   -0.00221   -0.02087
  2 Na   -0.00497    0.00346    0.00064
  3 Na   -0.00141   -0.00063   -0.00379
  4 Na   -0.01160    0.00991    0.01426
  5 Na    0.01753   -0.01112    0.00701

System changes: positions 

Initializing position-dependent things.

Density initialized from wave functions
           .--------------------------------------.  
          /|                                      |  
         / |                                      |  
        /  |                                      |  
       /   |                                      |  
      /    |                                      |  
     /     |                                      |  
    /      |                                      |  
   /       |                                      |  
  /        |                                      |  
 *         |           Na                         |  
 |         |                                      |  
 |         |                Na                    |  
 |         |                                      |  
 |         |            Na                        |  
 |         |                    Na                |  
 |         |                                      |  
 |         |                Na                    |  
 |         |                                      |  
 |         |             Na                       |  
 |         .--------------------------------------.  
 |        /                                      /   
 |       /                                      /    
 |      /                                      /     
 |     /                                      /      
 |    /                                      /       
 |   /                                      /        
 |  /                                      /         
 | /                                      /          
 |/                                      /           
 *--------------------------------------*            

Positions:
   0 Na    11.421295    5.052904    9.690877    ( 0.0000,  0.0000,  0.0000)
   1 Na     9.100419    7.112098   10.497732    ( 0.0000,  0.0000,  0.0000)
   2 Na     6.657565    9.300194   11.523089    ( 0.0000,  0.0000,  0.0000)
   3 Na     7.665109    8.004893    5.084984    ( 0.0000,  0.0000,  0.0000)
   4 Na     9.501115    6.568740    7.443617    ( 0.0000,  0.0000,  0.0000)
   5 Na     7.241307    8.572591    8.358371    ( 0.0000,  0.0000,  0.0000)

Unit cell:
           periodic     x           y           z      points  spacing
  1. axis:    no    16.000000    0.000000    0.000000    64     0.2500
  2. axis:    no     0.000000   16.000000    0.000000    64     0.2500
  3. axis:    no     0.000000    0.000000   16.000000    64     0.2500

  Lengths:  16.000000  16.000000  16.000000
  Angles:   90.000000  90.000000  90.000000

Effective grid spacing dv^(1/3) = 0.2500

                     log10-error:    total        iterations:
           time      wfs    density  energy       fermi  poisson
iter:   1  22:52:54  -1.00   +inf    -5.246974    3             
iter:   2  22:52:54  -2.26  -0.85    -5.228301    2             
iter:   3  22:52:55  -2.71  -0.92    -5.177686    4             
iter:   4  22:52:55  -3.66  -1.45    -5.177872    2             
iter:   5  22:52:56  -4.09  -1.49    -5.178807    2             
iter:   6  22:52:56  -4.42  -1.79    -5.178842    2             
iter:   7  22:52:56  -4.81  -1.96    -5.178910    2             
iter:   8  22:52:57  -5.25  -2.26    -5.178919    2             
iter:   9  22:52:57  -5.52  -2.46    -5.178910    2             
iter:  10  22:52:58  -6.09  -3.04    -5.178910    1             
iter:  11  22:52:58  -6.54  -3.15    -5.178910    1             
iter:  12  22:52:58  -6.95  -3.17    -5.178910    1             
iter:  13  22:52:59  -7.34  -3.34    -5.178910    1             
iter:  14  22:52:59  -7.73  -3.46    -5.178910    1             
iter:  15  22:52:59  -8.08  -3.53    -5.178910    1             
iter:  16  22:53:00  -8.47  -3.62    -5.178910    1             
iter:  17  22:53:00  -8.71  -3.75    -5.178910    1             
iter:  18  22:53:01  -9.13  -3.91    -5.178910    1             
iter:  19  22:53:01  -9.18  -3.98    -5.178909    1             
iter:  20  22:53:01  -9.53  -4.08    -5.178909    1             

Converged after 20 iterations.

Dipole moment: (0.039441, -0.029808, -0.019907) |e|*Ang

Energy contributions relative to reference atoms: (reference = -26392.251304)

Kinetic:        +14.716340
Potential:      -13.059079
External:        +0.000000
XC:              -6.834466
Entropy (-ST):   -0.000046
Local:           -0.001682
--------------------------
Free energy:     -5.178932
Extrapolated:    -5.178909

Fermi level: -2.40315

 Band  Eigenvalues  Occupancy
    0     -4.12246    2.00000
    1     -3.00890    1.99999
    2     -2.96483    1.99997
    3     -1.85863    0.00004
    4     -1.53927    0.00000
    5     -1.52039    0.00000
    6     -1.47352    0.00000
    7     -0.66168    0.00000
    8     -0.65597    0.00000
    9     -0.58828    0.00000
   10     -0.58336    0.00000
   11     -0.38753    0.00000
   12     -0.20453    0.00000
   13     -0.07521    0.00000
   14      0.22983    0.00000

Gap: 1.106 eV
Transition (v -> c):
  (s=0, k=0, n=2, [0.00, 0.00, 0.00]) -> (s=0, k=0, n=3, [0.00, 0.00, 0.00])

Forces in eV/Ang:
  0 Na    0.03601   -0.03273   -0.01942
  1 Na   -0.02045    0.04000    0.33362
  2 Na    0.04787   -0.04314   -0.02717
  3 Na    0.00828   -0.00555    0.03786
  4 Na    0.14774   -0.14389   -0.25423
  5 Na   -0.21948    0.18519   -0.07068

System changes: positions 

Initializing position-dependent things.

Density initialized from wave functions
           .--------------------------------------.  
          /|                                      |  
         / |                                      |  
        /  |                                      |  
       /   |                                      |  
      /    |                                      |  
     /     |                                      |  
    /      |                                      |  
   /       |                                      |  
  /        |                                      |  
 *         |           Na                         |  
 |         |                                      |  
 |         |                Na                    |  
 |         |                                      |  
 |         |            Na                        |  
 |         |                    Na                |  
 |         |                                      |  
 |         |                Na                    |  
 |         |                                      |  
 |         |             Na                       |  
 |         .--------------------------------------.  
 |        /                                      /   
 |       /                                      /    
 |      /                                      /     
 |     /                                      /      
 |    /                                      /       
 |   /                                      /        
 |  /                                      /         
 | /                                      /          
 |/                                      /           
 *--------------------------------------*            

Positions:
   0 Na    11.433547    5.040338    9.672469    ( 0.0000,  0.0000,  0.0000)
   1 Na     9.090431    7.133950   10.691090    ( 0.0000,  0.0000,  0.0000)
   2 Na     6.694211    9.271761   11.512131    ( 0.0000,  0.0000,  0.0000)
   3 Na     7.673960    8.006080    5.113354    ( 0.0000,  0.0000,  0.0000)
   4 Na     9.597374    6.481257    7.303698    ( 0.0000,  0.0000,  0.0000)
   5 Na     7.096960    8.677811    8.305735    ( 0.0000,  0.0000,  0.0000)

Unit cell:
           periodic     x           y           z      points  spacing
  1. axis:    no    16.000000    0.000000    0.000000    64     0.2500
  2. axis:    no     0.000000   16.000000    0.000000    64     0.2500
  3. axis:    no     0.000000    0.000000   16.000000    64     0.2500

  Lengths:  16.000000  16.000000  16.000000
  Angles:   90.000000  90.000000  90.000000

Effective grid spacing dv^(1/3) = 0.2500

                     log10-error:    total        iterations:
           time      wfs    density  energy       fermi  poisson
iter:   1  22:53:02  -1.01   +inf    -5.354078    4             
iter:   2  22:53:03  -2.30  -0.83    -5.330679    2             
iter:   3  22:53:03  -2.71  -0.89    -5.267225    4             
iter:   4  22:53:04  -3.76  -1.46    -5.267210    2             
iter:   5  22:53:04  -4.21  -1.51    -5.267582    2             
iter:   6  22:53:04  -4.39  -1.69    -5.267677    2             
iter:   7  22:53:05  -4.50  -1.83    -5.267852    2             
iter:   8  22:53:05  -5.18  -2.46    -5.267848    2             
iter:   9  22:53:05  -5.46  -2.45    -5.267834    1             
iter:  10  22:53:06  -5.98  -3.04    -5.267833    1             
iter:  11  22:53:06  -6.40  -3.13    -5.267833    1             
iter:  12  22:53:07  -6.82  -3.16    -5.267833    1             
iter:  13  22:53:07  -7.20  -3.27    -5.267833    1             
iter:  14  22:53:07  -7.51  -3.44    -5.267833    1             
iter:  15  22:53:08  -7.94  -3.83    -5.267833    1             
iter:  16  22:53:08  -8.37  -3.91    -5.267833    1             
iter:  17  22:53:09  -8.74  -3.98    -5.267833    1             
iter:  18  22:53:09  -9.12  -4.05    -5.267833    1             

Converged after 18 iterations.

Dipole moment: (0.015366, -0.007745, -0.012294) |e|*Ang

Energy contributions relative to reference atoms: (reference = -26392.251304)

Kinetic:        +12.012865
Potential:      -11.016053
External:        +0.000000
XC:              -6.263416
Entropy (-ST):   -0.000019
Local:           -0.001219
--------------------------
Free energy:     -5.267842
Extrapolated:    -5.267833

Fermi level: -2.37986

 Band  Eigenvalues  Occupancy
    0     -4.02978    2.00000
    1     -3.00919    1.99999
    2     -3.00487    1.99999
    3     -1.78397    0.00001
    4     -1.62534    0.00000
    5     -1.60543    0.00000
    6     -1.42473    0.00000
    7     -0.66446    0.00000
    8     -0.64319    0.00000
    9     -0.61605    0.00000
   10     -0.56984    0.00000
   11     -0.45279    0.00000
   12     -0.26555    0.00000
   13     -0.06951    0.00000
   14      0.26044    0.00000

Gap: 1.221 eV
Transition (v -> c):
  (s=0, k=0, n=2, [0.00, 0.00, 0.00]) -> (s=0, k=0, n=3, [0.00, 0.00, 0.00])

Forces in eV/Ang:
  0 Na   -0.00973    0.00778   -0.00767
  1 Na    0.00342   -0.00191    0.01245
  2 Na    0.00333   -0.00288    0.00358
  3 Na   -0.00359    0.00232    0.00617
  4 Na    0.01626   -0.01423    0.00361
  5 Na   -0.00950    0.00874   -0.01820

System changes: positions 

Initializing position-dependent things.

Density initialized from wave functions
           .--------------------------------------.  
          /|                                      |  
         / |                                      |  
        /  |                                      |  
       /   |                                      |  
      /    |                                      |  
     /     |                                      |  
    /      |                                      |  
   /       |                                      |  
  /        |                                      |  
 *         |                                      |  
 |         |          Na                          |  
 |         |                                      |  
 |         |       Na      Na                     |  
 |         |                Na                    |  
 |         |                                      |  
 |         |                                      |  
 |         |             Na   Na                  |  
 |         |                                      |  
 |         |                                      |  
 |         .--------------------------------------.  
 |        /                                      /   
 |       /                                      /    
 |      /                                      /     
 |     /                                      /      
 |    /                                      /       
 |   /                                      /        
 |  /                                      /         
 | /                                      /          
 |/                                      /           
 *--------------------------------------*            

Positions:
   0 Na     8.210231    9.489933    8.656516    ( 0.0000,  0.0000,  0.0000)
   1 Na     6.417931    8.101846   10.968460    ( 0.0000,  0.0000,  0.0000)
   2 Na     5.009862    9.947279    8.321395    ( 0.0000,  0.0000,  0.0000)
   3 Na     7.211492    9.790525    5.577356    ( 0.0000,  0.0000,  0.0000)
   4 Na     9.992557    7.848605    6.505352    ( 0.0000,  0.0000,  0.0000)
   5 Na     9.477264    6.754058    9.822530    ( 0.0000,  0.0000,  0.0000)

Unit cell:
           periodic     x           y           z      points  spacing
  1. axis:    no    16.000000    0.000000    0.000000    64     0.2500
  2. axis:    no     0.000000   16.000000    0.000000    64     0.2500
  3. axis:    no     0.000000    0.000000   16.000000    64     0.2500

  Lengths:  16.000000  16.000000  16.000000
  Angles:   90.000000  90.000000  90.000000

Effective grid spacing dv^(1/3) = 0.2500

                     log10-error:    total        iterations:
           time      wfs    density  energy       fermi  poisson
iter:   1  22:53:10  +0.39   +inf    -8.159262    23            
iter:   2  22:53:10  -0.53  -0.06    -7.773687    4             
iter:   3  22:53:11  -1.14  -0.09    -5.595709    27            
iter:   4  22:53:11  -1.78  -0.43    -5.533463    4             
iter:   5  22:53:11  -2.08  -0.48    -5.330022    7             
iter:   6  22:53:12  -2.56  -0.86    -5.354237    4             
iter:   7  22:53:12  -2.83  -0.91    -5.322736    4             
iter:   8  22:53:13  -3.52  -1.29    -5.324561    1             
iter:   9  22:53:13  -3.90  -1.37    -5.325329    3             
iter:  10  22:53:13  -4.34  -1.66    -5.325331    2             
iter:  11  22:53:14  -4.82  -1.82    -5.325301    2             
iter:  12  22:53:14  -5.25  -1.88    -5.325268    2             
iter:  13  22:53:15  -5.17  -1.96    -5.325458    2             
iter:  14  22:53:15  -5.96  -2.22    -5.325434    2             
iter:  15  22:53:15  -5.88  -2.28    -5.325388    2             
iter:  16  22:53:16  -6.69  -2.60    -5.325389    1             
iter:  17  22:53:16  -6.59  -2.66    -5.325394    1             
iter:  18  22:53:17  -7.32  -2.94    -5.325392    1             
iter:  19  22:53:17  -7.85  -2.99    -5.325392    1             
iter:  20  22:53:17  -8.16  -3.06    -5.325392    1             
iter:  21  22:53:18  -7.87  -3.12    -5.325394    1             
iter:  22  22:53:18  -8.33  -3.28    -5.325394    1             
iter:  23  22:53:18  -7.75  -3.39    -5.325394    1             
iter:  24  22:53:19  -8.96  -3.89    -5.325394    1             
iter:  25  22:53:19  -9.48  -3.92    -5.325394    1             
iter:  26  22:53:20  -9.59  -4.02    -5.325394    1             

Converged after 26 iterations.

Dipole moment: (-0.066331, -0.105345, -0.044984) |e|*Ang

Energy contributions relative to reference atoms: (reference = -26392.251304)

Kinetic:        +11.976417
Potential:      -10.843240
External:        +0.000000
XC:              -6.456838
Entropy (-ST):   -0.000035
Local:           -0.001715
--------------------------
Free energy:     -5.325411
Extrapolated:    -5.325394

Fermi level: -2.34706

 Band  Eigenvalues  Occupancy
    0     -4.11788    2.00000
    1     -2.94477    1.99999
    2     -2.93678    1.99998
    3     -1.78395    0.00003
    4     -1.63177    0.00000
    5     -1.62304    0.00000
    6     -1.33660    0.00000
    7     -0.74467    0.00000
    8     -0.73330    0.00000
    9     -0.37314    0.00000
   10     -0.34504    0.00000
   11     -0.30142    0.00000
   12     -0.27408    0.00000
   13     -0.11097    0.00000
   14      0.23971    0.00000

Gap: 1.153 eV
Transition (v -> c):
  (s=0, k=0, n=2, [0.00, 0.00, 0.00]) -> (s=0, k=0, n=3, [0.00, 0.00, 0.00])

Forces in eV/Ang:
  0 Na    0.00983    0.03356    0.00492
  1 Na   -0.00013   -0.00955   -0.00791
  2 Na    0.00539   -0.00654   -0.00308
  3 Na   -0.00307   -0.00514    0.00689
  4 Na   -0.00658   -0.00899    0.00202
  5 Na   -0.00517   -0.00326   -0.00305

System changes: positions 

Initializing position-dependent things.

Density initialized from wave functions
           .--------------------------------------.  
          /|                                      |  
         / |                                      |  
        /  |                                      |  
       /   |                                      |  
      /    |                                      |  
     /     |                                      |  
    /      |                                      |  
   /       |                                      |  
  /        |                                      |  
 *         |                                      |  
 |         |          Na                          |  
 |         |                                      |  
 |         |        Na     Na                     |  
 |         |                Na                    |  
 |         |                                      |  
 |         |                                      |  
 |         |             Na   Na                  |  
 |         |                                      |  
 |         |                                      |  
 |         .--------------------------------------.  
 |        /                                      /   
 |       /                                      /    
 |      /                                      /     
 |     /                                      /      
 |    /                                      /       
 |   /                                      /        
 |  /                                      /         
 | /                                      /          
 |/                                      /           
 *--------------------------------------*            

Positions:
   0 Na     8.304467    9.811734    8.703689    ( 0.0000,  0.0000,  0.0000)
   1 Na     6.416641    8.010280   10.892601    ( 0.0000,  0.0000,  0.0000)
   2 Na     5.061544    9.884541    8.291868    ( 0.0000,  0.0000,  0.0000)
   3 Na     7.182049    9.741203    5.643435    ( 0.0000,  0.0000,  0.0000)
   4 Na     9.929412    7.762438    6.524767    ( 0.0000,  0.0000,  0.0000)
   5 Na     9.427721    6.722788    9.793312    ( 0.0000,  0.0000,  0.0000)

Unit cell:
           periodic     x           y           z      points  spacing
  1. axis:    no    16.000000    0.000000    0.000000    64     0.2500
  2. axis:    no     0.000000   16.000000    0.000000    64     0.2500
  3. axis:    no     0.000000    0.000000   16.000000    64     0.2500

  Lengths:  16.000000  16.000000  16.000000
  Angles:   90.000000  90.000000  90.000000

Effective grid spacing dv^(1/3) = 0.2500

                     log10-error:    total        iterations:
           time      wfs    density  energy       fermi  poisson
iter:   1  22:53:21  -1.03   +inf    -5.385866    3             
iter:   2  22:53:21  -2.30  -0.84    -5.363946    2             
iter:   3  22:53:21  -2.76  -0.91    -5.309864    3             
iter:   4  22:53:22  -3.83  -1.33    -5.309393    2             
iter:   5  22:53:22  -4.09  -1.41    -5.309079    2             
iter:   6  22:53:23  -4.33  -1.60    -5.309390    2             
iter:   7  22:53:23  -4.64  -1.76    -5.309738    2             
iter:   8  22:53:23  -5.30  -2.25    -5.309813    1             
iter:   9  22:53:24  -5.43  -2.30    -5.309785    2             
iter:  10  22:53:24  -6.07  -2.80    -5.309787    1             
iter:  11  22:53:24  -6.50  -2.83    -5.309788    1             
iter:  12  22:53:25  -6.77  -2.88    -5.309788    2             
iter:  13  22:53:25  -7.20  -3.04    -5.309787    1             
iter:  14  22:53:26  -7.48  -3.08    -5.309786    1             
iter:  15  22:53:26  -7.82  -3.14    -5.309787    1             
iter:  16  22:53:26  -7.66  -3.23    -5.309788    1             
iter:  17  22:53:27  -8.28  -3.48    -5.309788    1             
iter:  18  22:53:27  -8.56  -3.60    -5.309788    1             
iter:  19  22:53:28  -8.58  -3.69    -5.309788    1             
iter:  20  22:53:28  -9.20  -3.93    -5.309788    1             
iter:  21  22:53:28  -8.98  -3.99    -5.309788    1             
iter:  22  22:53:29  -9.83  -4.23    -5.309788    1             

Converged after 22 iterations.

Dipole moment: (-0.061103, -0.053830, -0.049106) |e|*Ang

Energy contributions relative to reference atoms: (reference = -26392.251304)

Kinetic:        +10.861035
Potential:       -9.935833
External:        +0.000000
XC:              -6.233337
Entropy (-ST):   -0.000131
Local:           -0.001588
--------------------------
Free energy:     -5.309853
Extrapolated:    -5.309788

Fermi level: -2.40188

 Band  Eigenvalues  Occupancy
    0     -4.12484    2.00000
    1     -2.93633    1.99995
    2     -2.91307    1.99993
    3     -1.91488    0.00012
    4     -1.59832    0.00000
    5     -1.59739    0.00000
    6     -1.30729    0.00000
    7     -0.81171    0.00000
    8     -0.78796    0.00000
    9     -0.32238    0.00000
   10     -0.31006    0.00000
   11     -0.25423    0.00000
   12     -0.21746    0.00000
   13     -0.21149    0.00000
   14      0.19247    0.00000

Gap: 0.998 eV
Transition (v -> c):
  (s=0, k=0, n=2, [0.00, 0.00, 0.00]) -> (s=0, k=0, n=3, [0.00, 0.00, 0.00])

Forces in eV/Ang:
  0 Na    0.01145   -0.14217    0.01877
  1 Na    0.03322    0.03110   -0.03248
  2 Na   -0.02080    0.00489    0.03118
  3 Na    0.02926   -0.00176   -0.02965
  4 Na   -0.02831    0.03863    0.04016
  5 Na   -0.02482    0.06934   -0.02798

System changes: positions 

Initializing position-dependent things.

Density initialized from wave functions
           .--------------------------------------.  
          /|                                      |  
         / |                                      |  
        /  |                                      |  
       /   |                                      |  
      /    |                                      |  
     /     |                                      |  
    /      |                                      |  
   /       |                                      |  
  /        |                                      |  
 *         |                                      |  
 |         |                                      |  
 |         |          Na                          |  
 |         |       Na       Na                    |  
 |         |                Na                    |  
 |         |                                      |  
 |         |                                      |  
 |         |             Na   Na                  |  
 |         |                                      |  
 |         |                                      |  
 |         .--------------------------------------.  
 |        /                                      /   
 |       /                                      /    
 |      /                                      /     
 |     /                                      /      
 |    /                                      /       
 |   /                                      /        
 |  /                                      /         
 | /                                      /          
 |/                                      /           
 *--------------------------------------*            

Positions:
   0 Na     8.397495    9.662035    8.783869    ( 0.0000,  0.0000,  0.0000)
   1 Na     6.501420    8.028769   10.757731    ( 0.0000,  0.0000,  0.0000)
   2 Na     5.042744    9.854873    8.352352    ( 0.0000,  0.0000,  0.0000)
   3 Na     7.237654    9.703429    5.611509    ( 0.0000,  0.0000,  0.0000)
   4 Na     9.813872    7.803977    6.641385    ( 0.0000,  0.0000,  0.0000)
   5 Na     9.330350    6.880495    9.701490    ( 0.0000,  0.0000,  0.0000)

Unit cell:
           periodic     x           y           z      points  spacing
  1. axis:    no    16.000000    0.000000    0.000000    64     0.2500
  2. axis:    no     0.000000   16.000000    0.000000    64     0.2500
  3. axis:    no     0.000000    0.000000   16.000000    64     0.2500

  Lengths:  16.000000  16.000000  16.000000
  Angles:   90.000000  90.000000  90.000000

Effective grid spacing dv^(1/3) = 0.2500

                     log10-error:    total        iterations:
           time      wfs    density  energy       fermi  poisson
iter:   1  22:53:30  -0.90   +inf    -5.508645    4             
iter:   2  22:53:30  -2.15  -0.64    -5.428194    2             
iter:   3  22:53:30  -2.41  -0.73    -5.268665    4             
iter:   4  22:53:31  -3.32  -1.29    -5.267537    2             
iter:   5  22:53:31  -3.67  -1.37    -5.265751    2             
iter:   6  22:53:32  -4.04  -1.67    -5.265803    2             
iter:   7  22:53:32  -4.35  -1.78    -5.265643    3             
iter:   8  22:53:32  -4.86  -2.18    -5.265658    2             
iter:   9  22:53:33  -5.14  -2.29    -5.265632    1             
iter:  10  22:53:33  -5.60  -2.72    -5.265636    1             
iter:  11  22:53:34  -6.02  -2.77    -5.265633    1             
iter:  12  22:53:34  -6.40  -2.90    -5.265633    2             
iter:  13  22:53:34  -6.56  -2.98    -5.265634    2             
iter:  14  22:53:35  -7.06  -3.56    -5.265634    1             
iter:  15  22:53:35  -7.42  -3.66    -5.265634    1             
iter:  16  22:53:36  -7.82  -3.81    -5.265634    1             
iter:  17  22:53:36  -8.17  -3.83    -5.265634    1             
iter:  18  22:53:36  -8.58  -4.20    -5.265634    1             

Converged after 18 iterations.

Dipole moment: (-0.050102, -0.074801, -0.039262) |e|*Ang

Energy contributions relative to reference atoms: (reference = -26392.251304)

Kinetic:        +15.190839
Potential:      -13.322668
External:        +0.000000
XC:              -7.132626
Entropy (-ST):   -0.000120
Local:           -0.001119
--------------------------
Free energy:     -5.265694
Extrapolated:    -5.265634

Fermi level: -2.42147

 Band  Eigenvalues  Occupancy
    0     -4.23672    2.00000
    1     -2.95294    1.99995
    2     -2.94269    1.99994
    3     -1.92995    0.00011
    4     -1.60037    0.00000
    5     -1.52069    0.00000
    6     -1.34025    0.00000
    7     -0.79408    0.00000
    8     -0.78613    0.00000
    9     -0.27020    0.00000
   10     -0.23985    0.00000
   11     -0.22522    0.00000
   12     -0.20050    0.00000
   13     -0.17698    0.00000
   14      0.19138    0.00000

Gap: 1.013 eV
Transition (v -> c):
  (s=0, k=0, n=2, [0.00, 0.00, 0.00]) -> (s=0, k=0, n=3, [0.00, 0.00, 0.00])

Forces in eV/Ang:
  0 Na   -0.10736    0.18319   -0.08443
  1 Na   -0.13199   -0.00338    0.11866
  2 Na    0.03678    0.02714   -0.04455
  3 Na   -0.03237    0.03110    0.04196
  4 Na    0.08949   -0.02273   -0.16075
  5 Na    0.14563   -0.21496    0.12933

System changes: positions 

Initializing position-dependent things.

Density initialized from wave functions
           .--------------------------------------.  
          /|                                      |  
         / |                                      |  
        /  |                                      |  
       /   |                                      |  
      /    |                                      |  
     /     |                                      |  
    /      |                                      |  
   /       |                                      |  
  /        |                                      |  
 *         |                                      |  
 |         |          Na                          |  
 |         |                                      |  
 |         |       Na      Na                     |  
 |         |                Na                    |  
 |         |                                      |  
 |         |                                      |  
 |         |             Na   Na                  |  
 |         |                                      |  
 |         |                                      |  
 |         .--------------------------------------.  
 |        /                                      /   
 |       /                                      /    
 |      /                                      /     
 |     /                                      /      
 |    /                                      /       
 |   /                                      /        
 |  /                                      /         
 | /                                      /          
 |/                                      /           
 *--------------------------------------*            

Positions:
   0 Na     8.279259    9.626622    8.703089    ( 0.0000,  0.0000,  0.0000)
   1 Na     6.417387    8.069126   10.878980    ( 0.0000,  0.0000,  0.0000)
   2 Na     5.040408    9.904629    8.333834    ( 0.0000,  0.0000,  0.0000)
   3 Na     7.226505    9.749930    5.606800    ( 0.0000,  0.0000,  0.0000)
   4 Na     9.910116    7.827825    6.526948    ( 0.0000,  0.0000,  0.0000)
   5 Na     9.448509    6.755205    9.799930    ( 0.0000,  0.0000,  0.0000)

Unit cell:
           periodic     x           y           z      points  spacing
  1. axis:    no    16.000000    0.000000    0.000000    64     0.2500
  2. axis:    no     0.000000   16.000000    0.000000    64     0.2500
  3. axis:    no     0.000000    0.000000   16.000000    64     0.2500

  Lengths:  16.000000  16.000000  16.000000
  Angles:   90.000000  90.000000  90.000000

Effective grid spacing dv^(1/3) = 0.2500

                     log10-error:    total        iterations:
           time      wfs    density  energy       fermi  poisson
iter:   1  22:53:37  -0.93   +inf    -5.488966    4             
iter:   2  22:53:38  -2.19  -0.73    -5.441237    3             
iter:   3  22:53:38  -2.59  -0.80    -5.331312    4             
iter:   4  22:53:38  -3.60  -1.33    -5.330116    2             
iter:   5  22:53:39  -3.90  -1.42    -5.328154    2             
iter:   6  22:53:39  -4.32  -1.62    -5.327745    2             
iter:   7  22:53:40  -4.34  -1.72    -5.327669    2             
iter:   8  22:53:40  -4.88  -2.31    -5.327708    2             
iter:   9  22:53:40  -5.20  -2.35    -5.327677    2             
iter:  10  22:53:41  -5.65  -2.77    -5.327681    1             
iter:  11  22:53:41  -6.05  -2.82    -5.327681    1             
iter:  12  22:53:42  -6.37  -2.86    -5.327681    2             
iter:  13  22:53:42  -6.76  -3.02    -5.327680    1             
iter:  14  22:53:42  -7.12  -3.08    -5.327680    1             
iter:  15  22:53:43  -7.10  -3.12    -5.327680    1             
iter:  16  22:53:43  -7.66  -3.61    -5.327680    1             
iter:  17  22:53:44  -7.90  -3.67    -5.327680    1             
iter:  18  22:53:44  -8.28  -3.93    -5.327680    1             
iter:  19  22:53:44  -8.48  -4.00    -5.327680    1             

Converged after 19 iterations.

Dipole moment: (-0.062003, -0.090756, -0.043854) |e|*Ang

Energy contributions relative to reference atoms: (reference = -26392.251304)

Kinetic:        +12.352393
Potential:      -11.127170
External:        +0.000000
XC:              -6.551257
Entropy (-ST):   -0.000066
Local:           -0.001613
--------------------------
Free energy:     -5.327713
Extrapolated:    -5.327680

Fermi level: -2.37891

 Band  Eigenvalues  Occupancy
    0     -4.14685    2.00000
    1     -2.94654    1.99998
    2     -2.93088    1.99997
    3     -1.85372    0.00005
    4     -1.60721    0.00000
    5     -1.59777    0.00000
    6     -1.32738    0.00000
    7     -0.77344    0.00000
    8     -0.76491    0.00000
    9     -0.32958    0.00000
   10     -0.31523    0.00000
   11     -0.26681    0.00000
   12     -0.23583    0.00000
   13     -0.15491    0.00000
   14      0.21277    0.00000

Gap: 1.077 eV
Transition (v -> c):
  (s=0, k=0, n=2, [0.00, 0.00, 0.00]) -> (s=0, k=0, n=3, [0.00, 0.00, 0.00])

Forces in eV/Ang:
  0 Na    0.00273   -0.00289    0.00171
  1 Na    0.00166   -0.01287    0.01837
  2 Na   -0.00645    0.01177   -0.01683
  3 Na   -0.01685    0.01291   -0.00217
  4 Na    0.01809   -0.01391   -0.00167
  5 Na    0.00082    0.00508    0.00062

System changes: positions 

Initializing position-dependent things.

Density initialized from wave functions
           .--------------------------------------.  
          /|                                      |  
         / |                                      |  
        /  |                                      |  
       /   |                                      |  
      /    |                                      |  
     /     |                                      |  
    /      |                                      |  
   /       |                                      |  
  /        |                                      |  
 *         |           Na                         |  
 |         |                                      |  
 |         |                Na                    |  
 |         |                                      |  
 |         |            Na                        |  
 |         |                    Na                |  
 |         |                                      |  
 |         |                Na                    |  
 |         |                                      |  
 |         |             Na                       |  
 |         .--------------------------------------.  
 |        /                                      /   
 |       /                                      /    
 |      /                                      /     
 |     /                                      /      
 |    /                                      /       
 |   /                                      /        
 |  /                                      /         
 | /                                      /          
 |/                                      /           
 *--------------------------------------*            

Positions:
   0 Na    11.433547    5.040338    9.672469    ( 0.0000,  0.0000,  0.0000)
   1 Na     9.090431    7.133950   10.691090    ( 0.0000,  0.0000,  0.0000)
   2 Na     6.694211    9.271761   11.512131    ( 0.0000,  0.0000,  0.0000)
   3 Na     7.673960    8.006080    5.113354    ( 0.0000,  0.0000,  0.0000)
   4 Na     9.597374    6.481257    7.303698    ( 0.0000,  0.0000,  0.0000)
   5 Na     7.096960    8.677811    8.305735    ( 0.0000,  0.0000,  0.0000)

Unit cell:
           periodic     x           y           z      points  spacing
  1. axis:    no    16.000000    0.000000    0.000000    64     0.2500
  2. axis:    no     0.000000   16.000000    0.000000    64     0.2500
  3. axis:    no     0.000000    0.000000   16.000000    64     0.2500

  Lengths:  16.000000  16.000000  16.000000
  Angles:   90.000000  90.000000  90.000000

Effective grid spacing dv^(1/3) = 0.2500

                     log10-error:    total        iterations:
           time      wfs    density  energy       fermi  poisson
iter:   1  22:53:45  +0.58   +inf   -11.629798    27            
iter:   2  22:53:46  -0.30  +0.07   -10.843914    5             
iter:   3  22:53:46  -1.05  +0.04    -7.747420    32            
iter:   4  22:53:46  -1.43  -0.09    -5.541872    27            
iter:   5  22:53:47  -2.10  -0.44    -5.461449    3             
iter:   6  22:53:47  -1.94  -0.49    -5.307929    10            
iter:   7  22:53:48  -2.82  -0.80    -5.308052    2             
iter:   8  22:53:48  -2.82  -0.85    -5.264345    5             
iter:   9  22:53:48  -3.68  -1.20    -5.267392    3             
iter:  10  22:53:49  -3.84  -1.32    -5.268578    2             
iter:  11  22:53:49  -4.23  -1.63    -5.267952    2             
iter:  12  22:53:50  -4.97  -1.89    -5.267918    2             
iter:  13  22:53:50  -5.33  -1.94    -5.267883    1             
iter:  14  22:53:50  -5.63  -2.05    -5.267824    2             
iter:  15  22:53:51  -5.66  -2.14    -5.267751    2             
iter:  16  22:53:51  -6.25  -2.24    -5.267768    2             
iter:  17  22:53:51  -6.44  -2.31    -5.267801    2             
iter:  18  22:53:52  -5.95  -2.39    -5.267845    2             
iter:  19  22:53:52  -6.76  -2.77    -5.267841    1             
iter:  20  22:53:53  -7.19  -2.88    -5.267838    1             
iter:  21  22:53:53  -7.07  -2.96    -5.267834    1             
iter:  22  22:53:53  -7.90  -3.20    -5.267833    1             
iter:  23  22:53:54  -7.91  -3.27    -5.267833    1             
iter:  24  22:53:54  -8.69  -3.40    -5.267833    1             
iter:  25  22:53:55  -8.13  -3.45    -5.267833    1             
iter:  26  22:53:55  -9.05  -3.96    -5.267833    1             
iter:  27  22:53:55  -9.89  -4.05    -5.267833    1             

Converged after 27 iterations.

Dipole moment: (0.015409, -0.007838, -0.012281) |e|*Ang

Energy contributions relative to reference atoms: (reference = -26392.251304)

Kinetic:        +12.014049
Potential:      -11.017546
External:        +0.000000
XC:              -6.263979
Entropy (-ST):   -0.000019
Local:           -0.000347
--------------------------
Free energy:     -5.267842
Extrapolated:    -5.267833

Fermi level: -2.37979

 Band  Eigenvalues  Occupancy
    0     -4.02970    2.00000
    1     -3.00911    1.99999
    2     -3.00480    1.99999
    3     -1.78391    0.00001
    4     -1.62527    0.00000
    5     -1.60537    0.00000
    6     -1.42467    0.00000
    7     -0.66439    0.00000
    8     -0.64316    0.00000
    9     -0.61599    0.00000
   10     -0.56979    0.00000
   11     -0.45273    0.00000
   12     -0.26549    0.00000
   13     -0.06948    0.00000
   14      0.26052    0.00000

Gap: 1.221 eV
Transition (v -> c):
  (s=0, k=0, n=2, [0.00, 0.00, 0.00]) -> (s=0, k=0, n=3, [0.00, 0.00, 0.00])
System changes: positions 

Initializing position-dependent things.

Density initialized from wave functions
           .--------------------------------------.  
          /|                                      |  
         / |                                      |  
        /  |                                      |  
       /   |                                      |  
      /    |                                      |  
     /     |                                      |  
    /      |                                      |  
   /       |                                      |  
  /        |                                      |  
 *         |                                      |  
 |         |          Na                          |  
 |         |                                      |  
 |         |       Na      Na                     |  
 |         |                Na                    |  
 |         |                                      |  
 |         |                                      |  
 |         |             Na   Na                  |  
 |         |                                      |  
 |         |                                      |  
 |         .--------------------------------------.  
 |        /                                      /   
 |       /                                      /    
 |      /                                      /     
 |     /                                      /      
 |    /                                      /       
 |   /                                      /        
 |  /                                      /         
 | /                                      /          
 |/                                      /           
 *--------------------------------------*            

Positions:
   0 Na     8.279259    9.626622    8.703089    ( 0.0000,  0.0000,  0.0000)
   1 Na     6.417387    8.069126   10.878980    ( 0.0000,  0.0000,  0.0000)
   2 Na     5.040408    9.904629    8.333834    ( 0.0000,  0.0000,  0.0000)
   3 Na     7.226505    9.749930    5.606800    ( 0.0000,  0.0000,  0.0000)
   4 Na     9.910116    7.827825    6.526948    ( 0.0000,  0.0000,  0.0000)
   5 Na     9.448509    6.755205    9.799930    ( 0.0000,  0.0000,  0.0000)

Unit cell:
           periodic     x           y           z      points  spacing
  1. axis:    no    16.000000    0.000000    0.000000    64     0.2500
  2. axis:    no     0.000000   16.000000    0.000000    64     0.2500
  3. axis:    no     0.000000    0.000000   16.000000    64     0.2500

  Lengths:  16.000000  16.000000  16.000000
  Angles:   90.000000  90.000000  90.000000

Effective grid spacing dv^(1/3) = 0.2500

                     log10-error:    total        iterations:
           time      wfs    density  energy       fermi  poisson
iter:   1  22:53:56  +0.39   +inf    -8.280903    26            
iter:   2  22:53:56  -0.54  -0.05    -7.869519    4             
iter:   3  22:53:57  -1.13  -0.09    -5.595351    25            
iter:   4  22:53:57  -1.76  -0.44    -5.535116    3             
iter:   5  22:53:57  -2.07  -0.49    -5.331649    6             
iter:   6  22:53:58  -2.50  -0.85    -5.361778    4             
iter:   7  22:53:58  -2.80  -0.90    -5.325534    4             
iter:   8  22:53:59  -3.48  -1.28    -5.326753    1             
iter:   9  22:53:59  -3.88  -1.38    -5.327955    3             
iter:  10  22:53:59  -4.28  -1.65    -5.327607    2             
iter:  11  22:54:00  -4.78  -1.80    -5.327599    2             
iter:  12  22:54:00  -4.96  -1.85    -5.327561    2             
iter:  13  22:54:01  -5.23  -2.04    -5.327757    2             
iter:  14  22:54:01  -5.69  -2.17    -5.327710    2             
iter:  15  22:54:01  -6.21  -2.34    -5.327684    2             
iter:  16  22:54:02  -6.64  -2.47    -5.327679    2             
iter:  17  22:54:02  -6.45  -2.54    -5.327678    1             
iter:  18  22:54:03  -7.34  -2.87    -5.327678    1             
iter:  19  22:54:03  -7.47  -2.90    -5.327677    1             
iter:  20  22:54:03  -7.43  -2.99    -5.327680    1             
iter:  21  22:54:04  -7.72  -3.27    -5.327680    1             
iter:  22  22:54:04  -8.62  -3.53    -5.327680    1             
iter:  23  22:54:05  -8.32  -3.57    -5.327680    1             
iter:  24  22:54:05  -9.34  -3.91    -5.327680    1             
iter:  25  22:54:05  -9.60  -3.96    -5.327680    1             
iter:  26  22:54:06  -9.33  -4.06    -5.327680    1             

Converged after 26 iterations.

Dipole moment: (-0.062105, -0.090697, -0.043916) |e|*Ang

Energy contributions relative to reference atoms: (reference = -26392.251304)

Kinetic:        +12.350673
Potential:      -11.125895
External:        +0.000000
XC:              -6.551118
Entropy (-ST):   -0.000066
Local:           -0.001307
--------------------------
Free energy:     -5.327713
Extrapolated:    -5.327680

Fermi level: -2.37891

 Band  Eigenvalues  Occupancy
    0     -4.14684    2.00000
    1     -2.94655    1.99998
    2     -2.93088    1.99997
    3     -1.85371    0.00005
    4     -1.60722    0.00000
    5     -1.59778    0.00000
    6     -1.32738    0.00000
    7     -0.77343    0.00000
    8     -0.76490    0.00000
    9     -0.32960    0.00000
   10     -0.31524    0.00000
   11     -0.26681    0.00000
   12     -0.23584    0.00000
   13     -0.15491    0.00000
   14      0.21277    0.00000

Gap: 1.077 eV
Transition (v -> c):
  (s=0, k=0, n=2, [0.00, 0.00, 0.00]) -> (s=0, k=0, n=3, [0.00, 0.00, 0.00])
Timing:                                      incl.     excl.
-------------------------------------------------------------------
Density initialized from wave functions:     0.932     0.931   0.9% |
 Symmetrize density:                         0.000     0.000   0.0% |
Forces:                                      2.834     2.834   2.7% ||
Hamiltonian:                                 2.088     0.051   0.0% |
 Atomic:                                     0.145     0.006   0.0% |
  XC Correction:                             0.139     0.139   0.1% |
 Calculate atomic Hamiltonians:              0.508     0.508   0.5% |
 Communicate:                                0.136     0.136   0.1% |
 Initialize Hamiltonian:                     0.001     0.001   0.0% |
 Poisson:                                    0.030     0.030   0.0% |
 XC 3D grid:                                 1.217     1.217   1.2% |
LCAO initialization:                         0.071     0.013   0.0% |
 LCAO eigensolver:                           0.005     0.000   0.0% |
  Calculate projections:                     0.000     0.000   0.0% |
  DenseAtomicCorrection:                     0.000     0.000   0.0% |
  Distribute overlap matrix:                 0.003     0.003   0.0% |
  Orbital Layouts:                           0.000     0.000   0.0% |
  Potential matrix:                          0.002     0.002   0.0% |
 LCAO to grid:                               0.038     0.038   0.0% |
 Set positions (LCAO WFS):                   0.015     0.008   0.0% |
  Basic WFS set positions:                   0.000     0.000   0.0% |
  Basis functions set positions:             0.000     0.000   0.0% |
  P tci:                                     0.000     0.000   0.0% |
  ST tci:                                    0.001     0.001   0.0% |
  mktci:                                     0.005     0.005   0.0% |
PWDescriptor:                                0.013     0.013   0.0% |
Redistribute:                                0.006     0.006   0.0% |
SCF-cycle:                                  95.390     0.321   0.3% |
 Davidson:                                  25.911     3.901   3.8% |-|
  Apply H:                                   4.786     4.610   4.4% |-|
   HMM T:                                    0.176     0.176   0.2% |
  Subspace diag:                             5.453     0.030   0.0% |
   calc_h_matrix:                            4.895     0.222   0.2% |
    Apply H:                                 4.673     4.491   4.3% |-|
     HMM T:                                  0.182     0.182   0.2% |
   diagonalize:                              0.079     0.079   0.1% |
   rotate_psi:                               0.449     0.449   0.4% |
  calc. matrices:                           10.924     1.451   1.4% ||
   Apply H:                                  9.473     9.115   8.8% |---|
    HMM T:                                   0.358     0.358   0.3% |
  diagonalize:                               0.223     0.223   0.2% |
  rotate_psi:                                0.625     0.625   0.6% |
 Density:                                   23.533     0.006   0.0% |
  Atomic density matrices:                   0.181     0.181   0.2% |
  Mix:                                      20.640    20.640  19.9% |-------|
  Multipole moments:                         0.043     0.043   0.0% |
  Pseudo density:                            2.664     2.660   2.6% ||
   Symmetrize density:                       0.004     0.004   0.0% |
 Hamiltonian:                               45.578     1.086   1.0% |
  Atomic:                                    3.181     0.132   0.1% |
   XC Correction:                            3.048     3.048   2.9% ||
  Calculate atomic Hamiltonians:            11.118    11.118  10.7% |---|
  Communicate:                               2.975     2.975   2.9% ||
  Poisson:                                   0.652     0.652   0.6% |
  XC 3D grid:                               26.566    26.566  25.6% |---------|
 Orthonormalize:                             0.046     0.001   0.0% |
  calc_s_matrix:                             0.008     0.008   0.0% |
  inverse-cholesky:                          0.004     0.004   0.0% |
  projections:                               0.023     0.023   0.0% |
  rotate_psi_s:                              0.010     0.010   0.0% |
Set symmetry:                                0.001     0.001   0.0% |
Other:                                       2.467     2.467   2.4% ||
-------------------------------------------------------------------
Total:                                               103.801 100.0%

Memory usage: 283.87 MiB
Date: Mon Feb  3 22:54:06 2020
