
  ___ ___ ___ _ _ _  
 |   |   |_  | | | | 
 | | | | | . | | | | 
 |__ |  _|___|_____|  19.8.1
 |___|_|             

User:   ericlin@hebbe12-1
Date:   Mon Feb  3 22:54:06 2020
Arch:   x86_64
Pid:    24225
Python: 3.7.2
gpaw:   /apps/Hebbe7/software/MPI/intel/2019.1.144-GCC-8.2.0-2.31.1/impi/2018.4.274/GPAW/19.8.1-Python-3.7.2/lib/python3.7/site-packages/gpaw
_gpaw:  /apps/Hebbe7/software/MPI/intel/2019.1.144-GCC-8.2.0-2.31.1/impi/2018.4.274/GPAW/19.8.1-Python-3.7.2/bin/
        gpaw-python
ase:    /apps/Hebbe7/software/MPI/intel/2019.1.144-GCC-8.2.0-2.31.1/impi/2018.4.274/ASE/3.18.0-Python-3.7.2/lib/python3.7/site-packages/ase (version 3.18.0)
numpy:  /apps/Hebbe7/software/MPI/intel/2019.1.144-GCC-8.2.0-2.31.1/impi/2018.4.274/SciPy-bundle/2019.03/lib/python3.7/site-packages/numpy (version 1.16.2)
scipy:  /apps/Hebbe7/software/MPI/intel/2019.1.144-GCC-8.2.0-2.31.1/impi/2018.4.274/SciPy-bundle/2019.03/lib/python3.7/site-packages/scipy (version 1.2.1)
libxc:  4.3.4
units:  Angstrom and eV
cores:  4

Input parameters:
  h: 0.25
  mode: {ecut: 350.0,
         gammacentered: False,
         name: pw}
  nbands: 10
  occupations: {name: fermi-dirac,
                width: 0.05}
  setups: {Na: 1}

System changes: positions, numbers, cell, pbc, initial_charges, initial_magmoms 

Initialize ...

Na-setup:
  name: Sodium
  id: fa5c50181d04022fed15b2593599c257
  Z: 11
  valence: 1
  core: 10
  charge: 0.0
  file: /apps/Common/Core/GPAW-setups/0.9.20000/Na.1.LDA.gz
  compensation charges: gauss, rc=0.43, lmax=2
  cutoffs: 2.36(filt), 3.60(core),
  valence states:
                energy  radius
    3s(1.00)    -2.819   1.349
    3p(0.00)    -0.774   1.349
    *s          24.392   1.349

  Using partial waves for Na as LCAO basis

Reference energy: -26392.251304

Spin-paired calculation

Occupation numbers:
  Fermi-Dirac: width=0.0500 eV

Convergence criteria:
  Maximum total energy change: 0.0005 eV / electron
  Maximum integral of absolute density change: 0.0001 electrons
  Maximum integral of absolute eigenstate change: 4e-08 eV^2
  Maximum number of iterations: 333

Symmetries present (total): 1

  ( 1  0  0)
  ( 0  1  0)
  ( 0  0  1)

1 k-point (Gamma)
1 k-point in the irreducible part of the Brillouin zone
       k-points in crystal coordinates                weights
   0:     0.00000000    0.00000000    0.00000000          1/1

Wave functions: Plane wave expansion
  Cutoff energy: 350.000 eV
  Number of coefficients: 61037 (reduced to 30519)
  Pulay-stress correction: 0.000000 eV/Ang^3 (de/decut=0.000000)
  Using FFTW library
  ScaLapack parameters: grid=1x1, blocksize=None
  Wavefunction extrapolation:
    Improved wavefunction reuse through dual PAW basis 

Eigensolver
   Davidson(niter=2, smin=None, normalize=True) 

Densities:
  Coarse grid: 64*64*64 grid
  Fine grid: 128*128*128 grid
  Total Charge: 0.000000 

Density mixing:
  Method: separate
  Backend: pulay
  Linear mixing parameter: 0.05
  Mixing with 5 old densities
  Damping of long wave oscillations: 50 

Hamiltonian:
  XC and Coulomb potentials evaluated on a 128*128*128 grid
  Using the LDA Exchange-Correlation functional
 

Memory estimate:
  Process memory now: 283.87 MiB
  Calculator: 56.94 MiB
    Density: 30.83 MiB
      Arrays: 13.00 MiB
      Localized functions: 12.83 MiB
      Mixer: 5.00 MiB
    Hamiltonian: 8.76 MiB
      Arrays: 8.50 MiB
      XC: 0.00 MiB
      Poisson: 0.00 MiB
      vbar: 0.26 MiB
    Wavefunctions: 17.36 MiB
      Arrays psit_nG: 4.66 MiB
      Eigensolver: 6.99 MiB
      Projections: 0.00 MiB
      Projectors: 0.41 MiB
      PW-descriptor: 5.30 MiB

Total number of cores used: 4
Domain decomposition: 2 x 2 x 1

Number of atoms: 6
Number of atomic orbitals: 24
Number of bands in calculation: 10
Bands to converge: occupied states only
Number of valence electrons: 6

... initialized

Initializing position-dependent things.

Density initialized from atomic densities
Creating initial wave functions:
  10 bands from LCAO basis set

           .--------------------------------------.  
          /|                                      |  
         / |                                      |  
        /  |                                      |  
       /   |                                      |  
      /    |                                      |  
     /     |                                      |  
    /      |                                      |  
   /       |                                      |  
  /        |                                      |  
 *         |           Na                         |  
 |         |                                      |  
 |         |                Na                    |  
 |         |                                      |  
 |         |            Na                        |  
 |         |                    Na                |  
 |         |                                      |  
 |         |                Na                    |  
 |         |                                      |  
 |         |             Na                       |  
 |         .--------------------------------------.  
 |        /                                      /   
 |       /                                      /    
 |      /                                      /     
 |     /                                      /      
 |    /                                      /       
 |   /                                      /        
 |  /                                      /         
 | /                                      /          
 |/                                      /           
 *--------------------------------------*            

Positions:
   0 Na    11.424955    5.046215    9.661160    ( 0.0000,  0.0000,  0.0000)
   1 Na     9.091214    7.135542   10.719357    ( 0.0000,  0.0000,  0.0000)
   2 Na     6.710298    9.263471   11.516303    ( 0.0000,  0.0000,  0.0000)
   3 Na     7.680133    8.011559    5.125248    ( 0.0000,  0.0000,  0.0000)
   4 Na     9.624253    6.463545    7.292195    ( 0.0000,  0.0000,  0.0000)
   5 Na     7.055205    8.690646    8.283979    ( 0.0000,  0.0000,  0.0000)

Unit cell:
           periodic     x           y           z      points  spacing
  1. axis:    no    16.000000    0.000000    0.000000    64     0.2500
  2. axis:    no     0.000000   16.000000    0.000000    64     0.2500
  3. axis:    no     0.000000    0.000000   16.000000    64     0.2500

  Lengths:  16.000000  16.000000  16.000000
  Angles:   90.000000  90.000000  90.000000

Effective grid spacing dv^(1/3) = 0.2500

                     log10-error:    total        iterations:
           time      wfs    density  energy       fermi  poisson
iter:   1  22:54:07  +0.22   +inf    -5.391112    2             
iter:   2  22:54:08  -1.06  -0.50    -5.394466    3             
iter:   3  22:54:08  -1.62  -0.52    -5.267487    6             
iter:   4  22:54:08  -2.06  -0.78    -5.267255    3             
iter:   5  22:54:09  -2.30  -0.88    -5.266936    3             
iter:   6  22:54:09  -2.63  -1.36    -5.269169    3             
iter:   7  22:54:09  -3.05  -1.56    -5.269141    2             
iter:   8  22:54:10  -3.37  -1.58    -5.267729    3             
iter:   9  22:54:10  -3.80  -2.20    -5.267687    2             
iter:  10  22:54:11  -4.17  -2.37    -5.267704    2             
iter:  11  22:54:11  -4.54  -2.41    -5.267708    1             
iter:  12  22:54:11  -4.90  -2.38    -5.267715    1             
iter:  13  22:54:12  -5.21  -2.42    -5.267703    2             
iter:  14  22:54:12  -5.65  -2.97    -5.267700    2             
iter:  15  22:54:12  -6.00  -3.02    -5.267701    1             
iter:  16  22:54:13  -6.34  -3.10    -5.267702    1             
iter:  17  22:54:13  -6.71  -3.27    -5.267702    1             
iter:  18  22:54:13  -7.11  -3.33    -5.267702    1             
iter:  19  22:54:14  -7.46  -3.50    -5.267702    1             
iter:  20  22:54:14  -7.84  -3.60    -5.267702    1             
iter:  21  22:54:15  -8.17  -3.68    -5.267702    1             
iter:  22  22:54:15  -8.45  -3.76    -5.267702    1             
iter:  23  22:54:15  -8.83  -3.86    -5.267702    1             
iter:  24  22:54:16  -8.93  -3.92    -5.267702    1             
iter:  25  22:54:16  -9.47  -4.27    -5.267702    1             

Converged after 25 iterations.

Dipole moment: (0.017461, -0.008266, -0.011628) |e|*Ang

Energy contributions relative to reference atoms: (reference = -26392.251304)

Kinetic:        +11.797133
Potential:      -10.857773
External:        +0.000000
XC:              -6.206424
Entropy (-ST):   -0.000016
Local:           -0.000630
--------------------------
Free energy:     -5.267710
Extrapolated:    -5.267702

Fermi level: -2.37534

 Band  Eigenvalues  Occupancy
    0     -4.01723    2.00000
    1     -3.01333    1.99999
    2     -3.01085    1.99999
    3     -1.76684    0.00001
    4     -1.64138    0.00000
    5     -1.62146    0.00000
    6     -1.41911    0.00000
    7     -0.66789    0.00000
    8     -0.63783    0.00000
    9     -0.57842    0.00000

Gap: 1.244 eV
Transition (v -> c):
  (s=0, k=0, n=2, [0.00, 0.00, 0.00]) -> (s=0, k=0, n=3, [0.00, 0.00, 0.00])
System changes: positions 

Initializing position-dependent things.

Density initialized from wave functions
           .--------------------------------------.  
          /|                                      |  
         / |                                      |  
        /  |                                      |  
       /   |                                      |  
      /    |                                      |  
     /     |                                      |  
    /      |                                      |  
   /       |                                      |  
  /        |                                      |  
 *         |                                      |  
 |         |          Na                          |  
 |         |                                      |  
 |         |       Na      Na                     |  
 |         |                Na                    |  
 |         |                                      |  
 |         |                                      |  
 |         |             Na   Na                  |  
 |         |                                      |  
 |         |                                      |  
 |         .--------------------------------------.  
 |        /                                      /   
 |       /                                      /    
 |      /                                      /     
 |     /                                      /      
 |    /                                      /       
 |   /                                      /        
 |  /                                      /         
 | /                                      /          
 |/                                      /           
 *--------------------------------------*            

Positions:
   0 Na     8.210231    9.489933    8.656516    ( 0.0000,  0.0000,  0.0000)
   1 Na     6.417931    8.101846   10.968460    ( 0.0000,  0.0000,  0.0000)
   2 Na     5.009862    9.947279    8.321395    ( 0.0000,  0.0000,  0.0000)
   3 Na     7.211492    9.790525    5.577356    ( 0.0000,  0.0000,  0.0000)
   4 Na     9.992557    7.848605    6.505352    ( 0.0000,  0.0000,  0.0000)
   5 Na     9.477264    6.754058    9.822530    ( 0.0000,  0.0000,  0.0000)

Unit cell:
           periodic     x           y           z      points  spacing
  1. axis:    no    16.000000    0.000000    0.000000    64     0.2500
  2. axis:    no     0.000000   16.000000    0.000000    64     0.2500
  3. axis:    no     0.000000    0.000000   16.000000    64     0.2500

  Lengths:  16.000000  16.000000  16.000000
  Angles:   90.000000  90.000000  90.000000

Effective grid spacing dv^(1/3) = 0.2500

                     log10-error:    total        iterations:
           time      wfs    density  energy       fermi  poisson
iter:   1  22:54:17  +0.39   +inf    -7.871442    22            
iter:   2  22:54:17  -0.44  -0.08    -7.748855    3             
iter:   3  22:54:17  -1.16  -0.10    -6.646120    6             
iter:   4  22:54:18  -1.26  -0.21    -5.637189    25            
iter:   5  22:54:18  -2.17  -0.46    -5.488186    3             
iter:   6  22:54:18  -2.34  -0.54    -5.327578    4             
iter:   7  22:54:19  -2.48  -0.85    -5.352340    5             
iter:   8  22:54:19  -2.82  -0.95    -5.324621    4             
iter:   9  22:54:20  -3.45  -1.32    -5.324992    2             
iter:  10  22:54:20  -3.82  -1.45    -5.326039    3             
iter:  11  22:54:20  -4.12  -1.64    -5.325355    2             
iter:  12  22:54:21  -4.78  -1.92    -5.325325    2             
iter:  13  22:54:21  -4.81  -1.96    -5.325383    2             
iter:  14  22:54:21  -5.24  -2.13    -5.325356    2             
iter:  15  22:54:22  -5.75  -2.26    -5.325394    1             
iter:  16  22:54:22  -5.98  -2.35    -5.325399    1             
iter:  17  22:54:22  -6.23  -2.47    -5.325388    2             
iter:  18  22:54:23  -6.93  -2.62    -5.325385    1             
iter:  19  22:54:23  -7.19  -2.67    -5.325385    1             
iter:  20  22:54:24  -6.68  -2.73    -5.325397    1             
iter:  21  22:54:24  -7.29  -2.97    -5.325396    1             
iter:  22  22:54:24  -7.23  -3.05    -5.325395    1             
iter:  23  22:54:25  -7.84  -3.13    -5.325395    1             
iter:  24  22:54:25  -8.25  -3.20    -5.325394    1             
iter:  25  22:54:25  -7.60  -3.24    -5.325394    1             
iter:  26  22:54:26  -8.32  -3.46    -5.325394    1             
iter:  27  22:54:26  -8.79  -3.49    -5.325394    1             
iter:  28  22:54:26  -8.14  -3.52    -5.325394    1             
iter:  29  22:54:27  -8.67  -3.86    -5.325394    1             
iter:  30  22:54:27  -9.29  -3.94    -5.325394    1             
iter:  31  22:54:28  -9.24  -4.04    -5.325394    1             

Converged after 31 iterations.

Dipole moment: (-0.066138, -0.105475, -0.045050) |e|*Ang

Energy contributions relative to reference atoms: (reference = -26392.251304)

Kinetic:        +11.977958
Potential:      -10.844545
External:        +0.000000
XC:              -6.456978
Entropy (-ST):   -0.000035
Local:           -0.001811
--------------------------
Free energy:     -5.325411
Extrapolated:    -5.325394

Fermi level: -2.34709

 Band  Eigenvalues  Occupancy
    0     -4.11795    2.00000
    1     -2.94480    1.99999
    2     -2.93680    1.99998
    3     -1.78399    0.00003
    4     -1.63177    0.00000
    5     -1.62304    0.00000
    6     -1.33664    0.00000
    7     -0.74470    0.00000
    8     -0.73334    0.00000
    9     -0.37029    0.00000

Gap: 1.153 eV
Transition (v -> c):
  (s=0, k=0, n=2, [0.00, 0.00, 0.00]) -> (s=0, k=0, n=3, [0.00, 0.00, 0.00])
System changes: positions 

Initializing position-dependent things.

Density initialized from wave functions
           .--------------------------------------.  
          /|                                      |  
         / |                                      |  
        /  |                                      |  
       /   |                                      |  
      /    |                                      |  
     /     |                                      |  
    /      |                                      |  
   /       |                                      |  
  /        |                                      |  
 *         |           Na                         |  
 |         |                                      |  
 |         |                Na                    |  
 |         |                                      |  
 |         |            Na                        |  
 |         |                    Na                |  
 |         |                                      |  
 |         |                Na                    |  
 |         |                                      |  
 |         |             Na                       |  
 |         .--------------------------------------.  
 |        /                                      /   
 |       /                                      /    
 |      /                                      /     
 |     /                                      /      
 |    /                                      /       
 |   /                                      /        
 |  /                                      /         
 | /                                      /          
 |/                                      /           
 *--------------------------------------*            

Positions:
   0 Na    11.424955    5.046215    9.661160    ( 0.0000,  0.0000,  0.0000)
   1 Na     9.091214    7.135542   10.719357    ( 0.0000,  0.0000,  0.0000)
   2 Na     6.710298    9.263471   11.516303    ( 0.0000,  0.0000,  0.0000)
   3 Na     7.680133    8.011559    5.125248    ( 0.0000,  0.0000,  0.0000)
   4 Na     9.624253    6.463545    7.292195    ( 0.0000,  0.0000,  0.0000)
   5 Na     7.055205    8.690646    8.283979    ( 0.0000,  0.0000,  0.0000)

Unit cell:
           periodic     x           y           z      points  spacing
  1. axis:    no    16.000000    0.000000    0.000000    64     0.2500
  2. axis:    no     0.000000   16.000000    0.000000    64     0.2500
  3. axis:    no     0.000000    0.000000   16.000000    64     0.2500

  Lengths:  16.000000  16.000000  16.000000
  Angles:   90.000000  90.000000  90.000000

Effective grid spacing dv^(1/3) = 0.2500

                     log10-error:    total        iterations:
           time      wfs    density  energy       fermi  poisson
iter:   1  22:54:28  +0.57   +inf   -11.638143    28            
iter:   2  22:54:28  -0.26  +0.06   -11.053271    4             
iter:   3  22:54:29  -0.95  +0.04   -10.956594    3             
iter:   4  22:54:29  -1.49  +0.04    -8.820337    9             
iter:   5  22:54:29  -1.18  -0.04    -5.901739    27            
iter:   6  22:54:30  -2.15  -0.34    -5.950171    2             
iter:   7  22:54:30  -1.50  -0.33    -5.240445    10            
iter:   8  22:54:31  -1.87  -0.45    -5.411879    2             
iter:   9  22:54:31  -2.24  -0.50    -5.400758    4             
iter:  10  22:54:31  -2.41  -0.62    -5.287031    4             
iter:  11  22:54:32  -2.77  -0.81    -5.303688    4             
iter:  12  22:54:32  -2.98  -0.87    -5.274302    2             
iter:  13  22:54:32  -3.57  -1.10    -5.275991    2             
iter:  14  22:54:33  -3.51  -1.25    -5.267492    3             
iter:  15  22:54:33  -4.35  -1.51    -5.267737    2             
iter:  16  22:54:33  -4.34  -1.57    -5.268064    2             
iter:  17  22:54:34  -4.85  -1.89    -5.267994    2             
iter:  18  22:54:34  -5.34  -2.02    -5.267797    2             
iter:  19  22:54:35  -5.75  -2.14    -5.267725    2             
iter:  20  22:54:35  -5.98  -2.22    -5.267722    1             
iter:  21  22:54:35  -6.28  -2.31    -5.267700    2             
iter:  22  22:54:36  -6.66  -2.34    -5.267689    1             
iter:  23  22:54:36  -6.08  -2.35    -5.267709    1             
iter:  24  22:54:36  -6.87  -2.64    -5.267709    1             
iter:  25  22:54:37  -6.46  -2.68    -5.267706    2             
iter:  26  22:54:37  -6.96  -2.93    -5.267703    1             
iter:  27  22:54:37  -7.61  -3.00    -5.267702    1             
iter:  28  22:54:38  -7.90  -3.11    -5.267702    1             
iter:  29  22:54:38  -7.96  -3.21    -5.267703    1             
iter:  30  22:54:39  -7.93  -3.38    -5.267702    1             
iter:  31  22:54:39  -8.41  -3.52    -5.267702    1             
iter:  32  22:54:39  -8.85  -3.67    -5.267702    1             
iter:  33  22:54:40  -9.43  -3.80    -5.267702    1             
iter:  34  22:54:40  -8.87  -3.87    -5.267702    1             
iter:  35  22:54:40  -9.92  -4.29    -5.267702    1             

Converged after 35 iterations.

Dipole moment: (0.017457, -0.008223, -0.011524) |e|*Ang

Energy contributions relative to reference atoms: (reference = -26392.251304)

Kinetic:        +11.794704
Potential:      -10.855762
External:        +0.000000
XC:              -6.206081
Entropy (-ST):   -0.000016
Local:           -0.000555
--------------------------
Free energy:     -5.267710
Extrapolated:    -5.267702

Fermi level: -2.37537

 Band  Eigenvalues  Occupancy
    0     -4.01727    2.00000
    1     -3.01337    1.99999
    2     -3.01087    1.99999
    3     -1.76688    0.00001
    4     -1.64141    0.00000
    5     -1.62148    0.00000
    6     -1.41915    0.00000
    7     -0.66676    0.00000
    8     -0.63788    0.00000
    9     -0.61056    0.00000

Gap: 1.244 eV
Transition (v -> c):
  (s=0, k=0, n=2, [0.00, 0.00, 0.00]) -> (s=0, k=0, n=3, [0.00, 0.00, 0.00])

Forces in eV/Ang:
  0 Na   -0.00039    0.00074    0.00270
  1 Na    0.00082   -0.00221   -0.02100
  2 Na   -0.00500    0.00336    0.00052
  3 Na   -0.00138   -0.00058   -0.00372
  4 Na   -0.01156    0.01000    0.01434
  5 Na    0.01753   -0.01125    0.00709

System changes: positions 

Initializing position-dependent things.

Density initialized from wave functions
           .--------------------------------------.  
          /|                                      |  
         / |                                      |  
        /  |                                      |  
       /   |                                      |  
      /    |                                      |  
     /     |                                      |  
    /      |                                      |  
   /       |                                      |  
  /        |                                      |  
 *         |           Na                         |  
 |         |                                      |  
 |         |                Na                    |  
 |         |                                      |  
 |         |            Na                        |  
 |         |                    Na                |  
 |         |                                      |  
 |         |                Na                    |  
 |         |                                      |  
 |         |             Na                       |  
 |         .--------------------------------------.  
 |        /                                      /   
 |       /                                      /    
 |      /                                      /     
 |     /                                      /      
 |    /                                      /       
 |   /                                      /        
 |  /                                      /         
 | /                                      /          
 |/                                      /           
 *--------------------------------------*            

Positions:
   0 Na    11.420869    5.054068    9.689765    ( 0.0000,  0.0000,  0.0000)
   1 Na     9.099888    7.112173   10.497269    ( 0.0000,  0.0000,  0.0000)
   2 Na     6.657439    9.299058   11.521826    ( 0.0000,  0.0000,  0.0000)
   3 Na     7.665533    8.005372    5.085939    ( 0.0000,  0.0000,  0.0000)
   4 Na     9.502002    6.569278    7.443838    ( 0.0000,  0.0000,  0.0000)
   5 Na     7.240672    8.571678    8.358960    ( 0.0000,  0.0000,  0.0000)

Unit cell:
           periodic     x           y           z      points  spacing
  1. axis:    no    16.000000    0.000000    0.000000    64     0.2500
  2. axis:    no     0.000000   16.000000    0.000000    64     0.2500
  3. axis:    no     0.000000    0.000000   16.000000    64     0.2500

  Lengths:  16.000000  16.000000  16.000000
  Angles:   90.000000  90.000000  90.000000

Effective grid spacing dv^(1/3) = 0.2500

                     log10-error:    total        iterations:
           time      wfs    density  energy       fermi  poisson
iter:   1  22:54:41  -1.03   +inf    -5.247786    3             
iter:   2  22:54:42  -2.29  -0.86    -5.229131    2             
iter:   3  22:54:42  -2.50  -0.91    -5.177884    4             
iter:   4  22:54:42  -3.57  -1.43    -5.177806    2             
iter:   5  22:54:43  -4.07  -1.48    -5.178764    2             
iter:   6  22:54:43  -3.99  -1.62    -5.178790    2             
iter:   7  22:54:43  -4.64  -1.95    -5.178748    2             
iter:   8  22:54:44  -4.98  -2.23    -5.178788    2             
iter:   9  22:54:44  -5.42  -2.50    -5.178781    2             
iter:  10  22:54:45  -5.72  -2.59    -5.178775    1             
iter:  11  22:54:45  -6.28  -3.16    -5.178775    1             
iter:  12  22:54:45  -6.68  -3.17    -5.178775    1             
iter:  13  22:54:46  -7.06  -3.28    -5.178775    1             
iter:  14  22:54:46  -7.37  -3.45    -5.178775    1             
iter:  15  22:54:46  -7.88  -3.58    -5.178775    1             
iter:  16  22:54:47  -8.16  -3.81    -5.178775    1             
iter:  17  22:54:47  -8.64  -4.04    -5.178775    1             

Converged after 17 iterations.

Dipole moment: (0.039600, -0.029869, -0.019320) |e|*Ang

Energy contributions relative to reference atoms: (reference = -26392.251304)

Kinetic:        +14.751943
Potential:      -13.088019
External:        +0.000000
XC:              -6.841455
Entropy (-ST):   -0.000045
Local:           -0.001221
--------------------------
Free energy:     -5.178797
Extrapolated:    -5.178775

Fermi level: -2.40299

 Band  Eigenvalues  Occupancy
    0     -4.12303    2.00000
    1     -3.00903    1.99999
    2     -2.96500    1.99997
    3     -1.85816    0.00004
    4     -1.53928    0.00000
    5     -1.52006    0.00000
    6     -1.47387    0.00000
    7     -0.66136    0.00000
    8     -0.65594    0.00000
    9     -0.58708    0.00000

Gap: 1.107 eV
Transition (v -> c):
  (s=0, k=0, n=2, [0.00, 0.00, 0.00]) -> (s=0, k=0, n=3, [0.00, 0.00, 0.00])

Forces in eV/Ang:
  0 Na    0.03692   -0.03340   -0.01867
  1 Na   -0.02000    0.03962    0.33435
  2 Na    0.04728   -0.04254   -0.02589
  3 Na    0.00806   -0.00536    0.03749
  4 Na    0.14723   -0.14324   -0.25509
  5 Na   -0.21971    0.18520   -0.07214

System changes: positions 

Initializing position-dependent things.

Density initialized from wave functions
           .--------------------------------------.  
          /|                                      |  
         / |                                      |  
        /  |                                      |  
       /   |                                      |  
      /    |                                      |  
     /     |                                      |  
    /      |                                      |  
   /       |                                      |  
  /        |                                      |  
 *         |           Na                         |  
 |         |                                      |  
 |         |                Na                    |  
 |         |                                      |  
 |         |            Na                        |  
 |         |                    Na                |  
 |         |                                      |  
 |         |                Na                    |  
 |         |                                      |  
 |         |             Na                       |  
 |         .--------------------------------------.  
 |        /                                      /   
 |       /                                      /    
 |      /                                      /     
 |     /                                      /      
 |    /                                      /       
 |   /                                      /        
 |  /                                      /         
 | /                                      /          
 |/                                      /           
 *--------------------------------------*            

Positions:
   0 Na    11.433529    5.040839    9.672027    ( 0.0000,  0.0000,  0.0000)
   1 Na     9.090270    7.133868   10.690976    ( 0.0000,  0.0000,  0.0000)
   2 Na     6.693993    9.271283   11.511814    ( 0.0000,  0.0000,  0.0000)
   3 Na     7.674150    8.006428    5.113811    ( 0.0000,  0.0000,  0.0000)
   4 Na     9.597745    6.481768    7.303653    ( 0.0000,  0.0000,  0.0000)
   5 Na     7.096501    8.677244    8.305605    ( 0.0000,  0.0000,  0.0000)

Unit cell:
           periodic     x           y           z      points  spacing
  1. axis:    no    16.000000    0.000000    0.000000    64     0.2500
  2. axis:    no     0.000000   16.000000    0.000000    64     0.2500
  3. axis:    no     0.000000    0.000000   16.000000    64     0.2500

  Lengths:  16.000000  16.000000  16.000000
  Angles:   90.000000  90.000000  90.000000

Effective grid spacing dv^(1/3) = 0.2500

                     log10-error:    total        iterations:
           time      wfs    density  energy       fermi  poisson
iter:   1  22:54:48  -1.04   +inf    -5.354484    4             
iter:   2  22:54:48  -2.28  -0.83    -5.331573    2             
iter:   3  22:54:49  -2.49  -0.89    -5.267882    4             
iter:   4  22:54:49  -3.65  -1.43    -5.267247    2             
iter:   5  22:54:49  -4.10  -1.50    -5.267490    2             
iter:   6  22:54:50  -3.95  -1.63    -5.267947    2             
iter:   7  22:54:50  -4.30  -1.80    -5.267848    2             
iter:   8  22:54:50  -4.99  -2.36    -5.267857    2             
iter:   9  22:54:51  -5.47  -2.51    -5.267847    1             
iter:  10  22:54:51  -5.66  -2.63    -5.267843    1             
iter:  11  22:54:52  -6.20  -3.06    -5.267841    1             
iter:  12  22:54:52  -6.65  -3.14    -5.267841    1             
iter:  13  22:54:52  -6.91  -3.18    -5.267841    1             
iter:  14  22:54:53  -7.27  -3.45    -5.267841    1             
iter:  15  22:54:53  -7.75  -3.59    -5.267841    1             
iter:  16  22:54:53  -8.02  -3.62    -5.267841    1             
iter:  17  22:54:54  -8.36  -3.76    -5.267841    1             
iter:  18  22:54:54  -8.72  -3.80    -5.267841    1             
iter:  19  22:54:54  -9.19  -3.98    -5.267841    1             
iter:  20  22:54:55  -8.98  -4.06    -5.267841    1             

Converged after 20 iterations.

Dipole moment: (0.015482, -0.007819, -0.012277) |e|*Ang

Energy contributions relative to reference atoms: (reference = -26392.251304)

Kinetic:        +12.024500
Potential:      -11.025448
External:        +0.000000
XC:              -6.265687
Entropy (-ST):   -0.000019
Local:           -0.001196
--------------------------
Free energy:     -5.267850
Extrapolated:    -5.267841

Fermi level: -2.37980

 Band  Eigenvalues  Occupancy
    0     -4.02996    2.00000
    1     -3.00920    1.99999
    2     -3.00494    1.99999
    3     -1.78381    0.00001
    4     -1.62526    0.00000
    5     -1.60542    0.00000
    6     -1.42483    0.00000
    7     -0.66446    0.00000
    8     -0.64307    0.00000
    9     -0.61578    0.00000

Gap: 1.221 eV
Transition (v -> c):
  (s=0, k=0, n=2, [0.00, 0.00, 0.00]) -> (s=0, k=0, n=3, [0.00, 0.00, 0.00])

Forces in eV/Ang:
  0 Na   -0.00941    0.00755   -0.00741
  1 Na    0.00348   -0.00193    0.01257
  2 Na    0.00313   -0.00270    0.00377
  3 Na   -0.00382    0.00248    0.00562
  4 Na    0.01628   -0.01426    0.00354
  5 Na   -0.00964    0.00891   -0.01805

System changes: positions 

Initializing position-dependent things.

Density initialized from wave functions
           .--------------------------------------.  
          /|                                      |  
         / |                                      |  
        /  |                                      |  
       /   |                                      |  
      /    |                                      |  
     /     |                                      |  
    /      |                                      |  
   /       |                                      |  
  /        |                                      |  
 *         |                                      |  
 |         |          Na                          |  
 |         |                                      |  
 |         |       Na      Na                     |  
 |         |                Na                    |  
 |         |                                      |  
 |         |                                      |  
 |         |             Na   Na                  |  
 |         |                                      |  
 |         |                                      |  
 |         .--------------------------------------.  
 |        /                                      /   
 |       /                                      /    
 |      /                                      /     
 |     /                                      /      
 |    /                                      /       
 |   /                                      /        
 |  /                                      /         
 | /                                      /          
 |/                                      /           
 *--------------------------------------*            

Positions:
   0 Na     8.210231    9.489933    8.656516    ( 0.0000,  0.0000,  0.0000)
   1 Na     6.417931    8.101846   10.968460    ( 0.0000,  0.0000,  0.0000)
   2 Na     5.009862    9.947279    8.321395    ( 0.0000,  0.0000,  0.0000)
   3 Na     7.211492    9.790525    5.577356    ( 0.0000,  0.0000,  0.0000)
   4 Na     9.992557    7.848605    6.505352    ( 0.0000,  0.0000,  0.0000)
   5 Na     9.477264    6.754058    9.822530    ( 0.0000,  0.0000,  0.0000)

Unit cell:
           periodic     x           y           z      points  spacing
  1. axis:    no    16.000000    0.000000    0.000000    64     0.2500
  2. axis:    no     0.000000   16.000000    0.000000    64     0.2500
  3. axis:    no     0.000000    0.000000   16.000000    64     0.2500

  Lengths:  16.000000  16.000000  16.000000
  Angles:   90.000000  90.000000  90.000000

Effective grid spacing dv^(1/3) = 0.2500

                     log10-error:    total        iterations:
           time      wfs    density  energy       fermi  poisson
iter:   1  22:54:56  +0.39   +inf    -7.896381    24            
iter:   2  22:54:56  -0.45  -0.07    -7.772819    2             
iter:   3  22:54:56  -1.14  -0.10    -6.431974    7             
iter:   4  22:54:57  -1.28  -0.24    -5.588021    28            
iter:   5  22:54:57  -2.15  -0.48    -5.455938    2             
iter:   6  22:54:58  -2.30  -0.56    -5.329398    4             
iter:   7  22:54:58  -2.54  -0.86    -5.344826    4             
iter:   8  22:54:58  -2.89  -0.97    -5.324258    3             
iter:   9  22:54:59  -3.58  -1.34    -5.324776    2             
iter:  10  22:54:59  -3.89  -1.43    -5.325372    3             
iter:  11  22:54:59  -4.25  -1.71    -5.325353    2             
iter:  12  22:55:00  -4.89  -1.93    -5.325281    2             
