
  ___ ___ ___ _ _ _  
 |   |   |_  | | | | 
 | | | | | . | | | | 
 |__ |  _|___|_____|  19.8.1
 |___|_|             

User:   ericlin@hebbe04-6
Date:   Wed Feb 12 22:38:32 2020
Arch:   x86_64
Pid:    8906
Python: 3.7.2
gpaw:   /apps/Hebbe7/software/MPI/GCC/8.2.0-2.31.1/OpenMPI/3.1.3/GPAW/19.8.1-Python-3.7.2-libvdwxc/lib/python3.7/site-packages/gpaw
_gpaw:  /apps/Hebbe7/software/MPI/GCC/8.2.0-2.31.1/OpenMPI/3.1.3/GPAW/19.8.1-Python-3.7.2-libvdwxc/bin/
        gpaw-python
ase:    /apps/Hebbe7/software/MPI/GCC/8.2.0-2.31.1/OpenMPI/3.1.3/ASE/3.18.0-Python-3.7.2/lib/python3.7/site-packages/ase (version 3.18.0)
numpy:  /apps/Hebbe7/software/MPI/GCC/8.2.0-2.31.1/OpenMPI/3.1.3/SciPy-bundle/2019.03/lib/python3.7/site-packages/numpy (version 1.16.2)
scipy:  /apps/Hebbe7/software/MPI/GCC/8.2.0-2.31.1/OpenMPI/3.1.3/SciPy-bundle/2019.03/lib/python3.7/site-packages/scipy (version 1.2.1)
libxc:  4.3.4
units:  Angstrom and eV
cores:  1

Input parameters:
  h: 0.25
  mode: {ecut: 500.0,
         gammacentered: False,
         name: pw}
  nbands: 15
  occupations: {name: fermi-dirac,
                width: 0.05}
  setups: {Na: 1}
  xc: vdW-DF-cx

System changes: positions, numbers, cell, pbc, initial_charges, initial_magmoms 

Initialize ...

Na-setup:
  name: Sodium
  id: 8dbce52902f3add137ce7d12431c9cac
  Z: 11
  valence: 1
  core: 10
  charge: 0.0
  file: /apps/Common/Core/GPAW-setups/0.9.20000/Na.1.PBE.gz
  compensation charges: gauss, rc=0.43, lmax=2
  cutoffs: 2.36(filt), 3.60(core),
  valence states:
                energy  radius
    3s(1.00)    -2.744   1.349
    3p(0.00)    -0.743   1.349
    *s          24.468   1.349

  Using partial waves for Na as LCAO basis

Reference energy: -26511.662975

Spin-paired calculation

Occupation numbers:
  Fermi-Dirac: width=0.0500 eV

Convergence criteria:
  Maximum total energy change: 0.0005 eV / electron
  Maximum integral of absolute density change: 0.0001 electrons
  Maximum integral of absolute eigenstate change: 4e-08 eV^2
  Maximum number of iterations: 333

Symmetries present (total): 1

  ( 1  0  0)
  ( 0  1  0)
  ( 0  0  1)

1 k-point (Gamma)
1 k-point in the irreducible part of the Brillouin zone
       k-points in crystal coordinates                weights
   0:     0.00000000    0.00000000    0.00000000          1/1

Wave functions: Plane wave expansion
  Cutoff energy: 500.000 eV
  Number of coefficients: 103959 (reduced to 51980)
  Pulay-stress correction: 0.000000 eV/Ang^3 (de/decut=0.000000)
  Using FFTW library
  ScaLapack parameters: grid=1x1, blocksize=None
  Wavefunction extrapolation:
    Improved wavefunction reuse through dual PAW basis 

Eigensolver
   Davidson(niter=2, smin=None, normalize=True) 

Densities:
  Coarse grid: 64*64*64 grid
  Fine grid: 128*128*128 grid
  Total Charge: 0.000000 

Density mixing:
  Method: separate
  Backend: pulay
  Linear mixing parameter: 0.05
  Mixing with 5 old densities
  Damping of long wave oscillations: 50 

Hamiltonian:
  XC and Coulomb potentials evaluated on a 128*128*128 grid
  Using the vdW-DF-cx Exchange-Correlation functional
 

XC parameters: vdW-DF-cx with libvdwxc
  Mode: serial
  Semilocal: GGA_X_LV_RPW86+LDA_C_PW with 2 nearest neighbor stencil
  Local blocksize: 128 x 128 x 128
  PAW datasets: PBE

Memory estimate:
  Process memory now: 1039.47 MiB
  Calculator: 194.79 MiB
    Density: 123.30 MiB
      Arrays: 52.00 MiB
      Localized functions: 51.30 MiB
      Mixer: 20.00 MiB
    Hamiltonian: 35.05 MiB
      Arrays: 34.00 MiB
      XC: 0.00 MiB
      Poisson: 0.00 MiB
      vbar: 1.05 MiB
    Wavefunctions: 36.44 MiB
      Arrays psit_nG: 11.90 MiB
      Eigensolver: 15.88 MiB
      Projections: 0.00 MiB
      Projectors: 2.78 MiB
      PW-descriptor: 5.89 MiB

Total number of cores used: 1

Number of atoms: 6
Number of atomic orbitals: 24
Number of bands in calculation: 15
Bands to converge: occupied states only
Number of valence electrons: 6

... initialized

Initializing position-dependent things.

Density initialized from atomic densities
Creating initial wave functions:
  15 bands from LCAO basis set

           .--------------------------------------.  
          /|                                      |  
         / |                                      |  
        /  |                                      |  
       /   |                                      |  
      /    |                                      |  
     /     |                                      |  
    /      |                                      |  
   /       |                                      |  
  /        |                                      |  
 *         |           Na                         |  
 |         |                                      |  
 |         |                Na                    |  
 |         |                                      |  
 |         |            Na                        |  
 |         |                    Na                |  
 |         |                                      |  
 |         |                Na                    |  
 |         |                                      |  
 |         |             Na                       |  
 |         .--------------------------------------.  
 |        /                                      /   
 |       /                                      /    
 |      /                                      /     
 |     /                                      /      
 |    /                                      /       
 |   /                                      /        
 |  /                                      /         
 | /                                      /          
 |/                                      /           
 *--------------------------------------*            

Positions:
   0 Na    11.424955    5.046215    9.661160    ( 0.0000,  0.0000,  0.0000)
   1 Na     9.091214    7.135542   10.719357    ( 0.0000,  0.0000,  0.0000)
   2 Na     6.710298    9.263471   11.516303    ( 0.0000,  0.0000,  0.0000)
   3 Na     7.680133    8.011559    5.125248    ( 0.0000,  0.0000,  0.0000)
   4 Na     9.624253    6.463545    7.292195    ( 0.0000,  0.0000,  0.0000)
   5 Na     7.055205    8.690646    8.283979    ( 0.0000,  0.0000,  0.0000)

Unit cell:
           periodic     x           y           z      points  spacing
  1. axis:    no    16.000000    0.000000    0.000000    64     0.2500
  2. axis:    no     0.000000   16.000000    0.000000    64     0.2500
  3. axis:    no     0.000000    0.000000   16.000000    64     0.2500

  Lengths:  16.000000  16.000000  16.000000
  Angles:   90.000000  90.000000  90.000000

Effective grid spacing dv^(1/3) = 0.2500

                     log10-error:    total        iterations:
           time      wfs    density  energy       fermi  poisson
iter:   1  22:38:41  +0.46   +inf    17.504165    2             
iter:   2  22:38:47  -1.38  -0.53    17.500266    2             
iter:   3  22:38:54  -1.94  -0.54    17.523049    4             
iter:   4  22:39:00  -2.51  -0.78    17.511511    2             
iter:   5  22:39:06  -2.29  -0.85    17.496494    4             
iter:   6  22:39:13  -3.31  -1.62    17.497651    3             
iter:   7  22:39:19  -3.76  -1.82    17.496831    2             
iter:   8  22:39:26  -3.70  -1.73    17.497387    2             
iter:   9  22:39:32  -4.42  -2.28    17.497345    2             
iter:  10  22:39:39  -5.16  -2.34    17.497300    1             
iter:  11  22:39:45  -5.34  -2.41    17.497267    1             
iter:  12  22:39:52  -6.20  -2.68    17.497261    1             
iter:  13  22:39:58  -6.06  -2.72    17.497261    1             
iter:  14  22:40:05  -6.85  -3.00    17.497260    1             
iter:  15  22:40:11  -6.37  -3.07    17.497260    1             
iter:  16  22:40:18  -7.87  -3.42    17.497260    1             
iter:  17  22:40:24  -7.53  -3.42    17.497260    1             
iter:  18  22:40:31  -7.41  -3.56    17.497261    1             
iter:  19  22:40:37  -7.78  -3.67    17.497261    1             
iter:  20  22:40:44  -8.78  -3.86    17.497261    1             
iter:  21  22:40:50  -8.48  -3.89    17.497260    1             
iter:  22  22:40:57  -8.67  -4.07    17.497260    1             

Converged after 22 iterations.

Dipole moment: (0.023396, -0.011745, -0.009786) |e|*Ang

Energy contributions relative to reference atoms: (reference = -26511.662975)

Kinetic:         +7.827942
Potential:       -7.413046
External:        +0.000000
XC:             +17.079636
Entropy (-ST):   -0.000031
Local:           +0.002744
--------------------------
Free energy:    +17.497245
Extrapolated:   +17.497260

Non-local vdW-DF-cx correlation energy: 2.003513
Semilocal GGA_X_LV_RPW86+LDA_C_PW energy: -52.764868
(Not including atomic contributions)
Fermi level: -2.17308

 Band  Eigenvalues  Occupancy
    0     -3.75548    2.00000
    1     -2.77512    1.99999
    2     -2.77232    1.99999
    3     -1.60344    0.00002
    4     -1.45355    0.00000
    5     -1.41615    0.00000
    6     -1.31300    0.00000
    7     -0.68823    0.00000
    8     -0.63524    0.00000
    9     -0.57608    0.00000
   10     -0.53021    0.00000
   11     -0.47690    0.00000
   12     -0.40887    0.00000
   13     -0.21048    0.00000
   14     -0.02345    0.00000

Gap: 1.169 eV
Transition (v -> c):
  (s=0, k=0, n=2, [0.00, 0.00, 0.00]) -> (s=0, k=0, n=3, [0.00, 0.00, 0.00])
System changes: positions 

Initializing position-dependent things.

Density initialized from wave functions
           .--------------------------------------.  
          /|                                      |  
         / |                                      |  
        /  |                                      |  
       /   |                                      |  
      /    |                                      |  
     /     |                                      |  
    /      |                                      |  
   /       |                                      |  
  /        |                                      |  
 *         |                                      |  
 |         |          Na                          |  
 |         |                                      |  
 |         |       Na      Na                     |  
 |         |                Na                    |  
 |         |                                      |  
 |         |                                      |  
 |         |             Na   Na                  |  
 |         |                                      |  
 |         |                                      |  
 |         .--------------------------------------.  
 |        /                                      /   
 |       /                                      /    
 |      /                                      /     
 |     /                                      /      
 |    /                                      /       
 |   /                                      /        
 |  /                                      /         
 | /                                      /          
 |/                                      /           
 *--------------------------------------*            

Positions:
   0 Na     8.210231    9.489933    8.656516    ( 0.0000,  0.0000,  0.0000)
   1 Na     6.417931    8.101846   10.968460    ( 0.0000,  0.0000,  0.0000)
   2 Na     5.009862    9.947279    8.321395    ( 0.0000,  0.0000,  0.0000)
   3 Na     7.211492    9.790525    5.577356    ( 0.0000,  0.0000,  0.0000)
   4 Na     9.992557    7.848605    6.505352    ( 0.0000,  0.0000,  0.0000)
   5 Na     9.477264    6.754058    9.822530    ( 0.0000,  0.0000,  0.0000)

Unit cell:
           periodic     x           y           z      points  spacing
  1. axis:    no    16.000000    0.000000    0.000000    64     0.2500
  2. axis:    no     0.000000   16.000000    0.000000    64     0.2500
  3. axis:    no     0.000000    0.000000   16.000000    64     0.2500

  Lengths:  16.000000  16.000000  16.000000
  Angles:   90.000000  90.000000  90.000000

Effective grid spacing dv^(1/3) = 0.2500

                     log10-error:    total        iterations:
           time      wfs    density  energy       fermi  poisson
iter:   1  22:41:04  +0.36   +inf    15.441253    26            
iter:   2  22:41:11  -0.67  -0.09    15.838947    4             
iter:   3  22:41:17  -1.13  -0.12    17.408041    28            
iter:   4  22:41:24  -1.86  -0.45    17.426105    4             
iter:   5  22:41:30  -2.04  -0.51    17.529105    4             
iter:   6  22:41:37  -2.40  -0.81    17.492138    4             
iter:   7  22:41:43  -2.77  -0.93    17.493418    3             
iter:   8  22:41:50  -3.03  -1.17    17.481613    2             
iter:   9  22:41:57  -3.34  -1.33    17.473876    3             
iter:  10  22:42:03  -3.77  -1.52    17.473796    2             
iter:  11  22:42:09  -4.43  -1.80    17.473557    2             
iter:  12  22:42:16  -4.85  -1.87    17.473238    2             
iter:  13  22:42:22  -5.08  -2.00    17.473216    2             
iter:  14  22:42:28  -5.43  -2.10    17.473152    2             
iter:  15  22:42:35  -4.74  -2.18    17.472858    2             
iter:  16  22:42:42  -5.81  -2.49    17.472855    2             
iter:  17  22:42:48  -5.97  -2.59    17.472866    2             
iter:  18  22:42:54  -6.71  -2.88    17.472868    1             
iter:  19  22:43:01  -6.47  -2.93    17.472867    1             
iter:  20  22:43:07  -6.96  -3.20    17.472865    1             
iter:  21  22:43:14  -8.10  -3.29    17.472865    1             
iter:  22  22:43:20  -6.68  -3.31    17.472866    1             
iter:  23  22:43:27  -8.13  -3.81    17.472866    1             
iter:  24  22:43:33  -8.59  -3.86    17.472866    1             
iter:  25  22:43:40  -8.40  -3.94    17.472866    1             
iter:  26  22:43:46  -8.73  -4.10    17.472866    1             

Converged after 26 iterations.

Dipole moment: (-0.079110, -0.121479, -0.052967) |e|*Ang

Energy contributions relative to reference atoms: (reference = -26511.662975)

Kinetic:         +8.028563
Potential:       -7.410658
External:        +0.000000
XC:             +16.853907
Entropy (-ST):   -0.000063
Local:           +0.001086
--------------------------
Free energy:    +17.472835
Extrapolated:   +17.472866

Non-local vdW-DF-cx correlation energy: 1.957688
Semilocal GGA_X_LV_RPW86+LDA_C_PW energy: -52.876401
(Not including atomic contributions)
Fermi level: -2.14928

 Band  Eigenvalues  Occupancy
    0     -3.86428    2.00000
    1     -2.71559    1.99998
    2     -2.70776    1.99997
    3     -1.61867    0.00005
    4     -1.45446    0.00000
    5     -1.43276    0.00000
    6     -1.26391    0.00000
    7     -0.72334    0.00000
    8     -0.69162    0.00000
    9     -0.44492    0.00000
   10     -0.39989    0.00000
   11     -0.37166    0.00000
   12     -0.28241    0.00000
   13     -0.25145    0.00000
   14     -0.07595    0.00000

Gap: 1.089 eV
Transition (v -> c):
  (s=0, k=0, n=2, [0.00, 0.00, 0.00]) -> (s=0, k=0, n=3, [0.00, 0.00, 0.00])
System changes: positions 

Initializing position-dependent things.

Density initialized from wave functions
           .--------------------------------------.  
          /|                                      |  
         / |                                      |  
        /  |                                      |  
       /   |                                      |  
      /    |                                      |  
     /     |                                      |  
    /      |                                      |  
   /       |                                      |  
  /        |                                      |  
 *         |           Na                         |  
 |         |                                      |  
 |         |                Na                    |  
 |         |                                      |  
 |         |            Na                        |  
 |         |                    Na                |  
 |         |                                      |  
 |         |                Na                    |  
 |         |                                      |  
 |         |             Na                       |  
 |         .--------------------------------------.  
 |        /                                      /   
 |       /                                      /    
 |      /                                      /     
 |     /                                      /      
 |    /                                      /       
 |   /                                      /        
 |  /                                      /         
 | /                                      /          
 |/                                      /           
 *--------------------------------------*            

Positions:
   0 Na    11.424955    5.046215    9.661160    ( 0.0000,  0.0000,  0.0000)
   1 Na     9.091214    7.135542   10.719357    ( 0.0000,  0.0000,  0.0000)
   2 Na     6.710298    9.263471   11.516303    ( 0.0000,  0.0000,  0.0000)
   3 Na     7.680133    8.011559    5.125248    ( 0.0000,  0.0000,  0.0000)
   4 Na     9.624253    6.463545    7.292195    ( 0.0000,  0.0000,  0.0000)
   5 Na     7.055205    8.690646    8.283979    ( 0.0000,  0.0000,  0.0000)

Unit cell:
           periodic     x           y           z      points  spacing
  1. axis:    no    16.000000    0.000000    0.000000    64     0.2500
  2. axis:    no     0.000000   16.000000    0.000000    64     0.2500
  3. axis:    no     0.000000    0.000000   16.000000    64     0.2500

  Lengths:  16.000000  16.000000  16.000000
  Angles:   90.000000  90.000000  90.000000

Effective grid spacing dv^(1/3) = 0.2500

                     log10-error:    total        iterations:
           time      wfs    density  energy       fermi  poisson
iter:   1  22:43:53  +0.53   +inf    11.811298    28            
iter:   2  22:44:00  -0.41  +0.05    12.786076    5             
iter:   3  22:44:06  -1.00  +0.02    15.307828    9             
iter:   4  22:44:13  -1.23  -0.10    17.415131    27            
iter:   5  22:44:19  -2.19  -0.47    17.468805    3             
iter:   6  22:44:25  -1.82  -0.52    17.510942    9             
iter:   7  22:44:32  -2.80  -0.78    17.486519    3             
iter:   8  22:44:38  -2.42  -0.82    17.514826    5             
iter:   9  22:44:45  -3.27  -1.16    17.504897    3             
iter:  10  22:44:51  -3.21  -1.30    17.498283    2             
iter:  11  22:44:58  -3.72  -1.52    17.498436    3             
iter:  12  22:45:04  -4.87  -1.81    17.498351    2             
iter:  13  22:45:10  -4.97  -1.84    17.498132    1             
iter:  14  22:45:17  -5.03  -1.94    17.497941    2             
iter:  15  22:45:23  -6.02  -2.00    17.497952    1             
iter:  16  22:45:30  -5.83  -2.03    17.497960    1             
iter:  17  22:45:36  -5.57  -2.08    17.497835    2             
iter:  18  22:45:43  -6.29  -2.14    17.497773    1             
iter:  19  22:45:49  -4.88  -2.16    17.497440    2             
iter:  20  22:45:56  -5.75  -2.36    17.497375    1             
iter:  21  22:46:02  -4.99  -2.40    17.497259    1             
iter:  22  22:46:08  -6.29  -2.91    17.497258    1             
iter:  23  22:46:15  -7.02  -3.00    17.497258    1             
iter:  24  22:46:21  -6.90  -3.09    17.497259    1             
iter:  25  22:46:28  -7.61  -3.38    17.497259    1             
iter:  26  22:46:34  -7.36  -3.42    17.497260    1             
iter:  27  22:46:40  -7.20  -3.52    17.497260    1             
iter:  28  22:46:47  -8.07  -3.72    17.497260    1             
iter:  29  22:46:53  -8.98  -3.90    17.497260    1             
iter:  30  22:47:00  -7.94  -3.93    17.497260    1             
iter:  31  22:47:07  -9.11  -4.25    17.497260    1             

Converged after 31 iterations.

Dipole moment: (0.023464, -0.011838, -0.009743) |e|*Ang

Energy contributions relative to reference atoms: (reference = -26511.662975)

Kinetic:         +7.824798
Potential:       -7.410503
External:        +0.000000
XC:             +17.079703
Entropy (-ST):   -0.000031
Local:           +0.003279
--------------------------
Free energy:    +17.497245
Extrapolated:   +17.497260

Non-local vdW-DF-cx correlation energy: 2.003511
Semilocal GGA_X_LV_RPW86+LDA_C_PW energy: -52.764986
(Not including atomic contributions)
Fermi level: -2.17306

 Band  Eigenvalues  Occupancy
    0     -3.75545    2.00000
    1     -2.77511    1.99999
    2     -2.77230    1.99999
    3     -1.60341    0.00002
    4     -1.45351    0.00000
    5     -1.41611    0.00000
    6     -1.31298    0.00000
    7     -0.68823    0.00000
    8     -0.63522    0.00000
    9     -0.57609    0.00000
   10     -0.53020    0.00000
   11     -0.47690    0.00000
   12     -0.40892    0.00000
   13     -0.21039    0.00000
   14     -0.03058    0.00000

Gap: 1.169 eV
Transition (v -> c):
  (s=0, k=0, n=2, [0.00, 0.00, 0.00]) -> (s=0, k=0, n=3, [0.00, 0.00, 0.00])

Forces in eV/Ang:
  0 Na    0.15774   -0.13346    0.05394
  1 Na    0.03254   -0.02164    0.09818
  2 Na   -0.11077    0.10812    0.15561
  3 Na   -0.05173    0.03250   -0.20964
  4 Na    0.05114   -0.04850   -0.07697
  5 Na   -0.07901    0.06320   -0.02127

System changes: positions 

Initializing position-dependent things.

Density initialized from wave functions
           .--------------------------------------.  
          /|                                      |  
         / |                                      |  
        /  |                                      |  
       /   |                                      |  
      /    |                                      |  
     /     |                                      |  
    /      |                                      |  
   /       |                                      |  
  /        |                                      |  
 *         |           Na                         |  
 |         |                                      |  
 |         |                Na                    |  
 |         |                                      |  
 |         |           Na                         |  
 |         |                    Na                |  
 |         |                                      |  
 |         |                 Na                   |  
 |         |                                      |  
 |         |             Na                       |  
 |         .--------------------------------------.  
 |        /                                      /   
 |       /                                      /    
 |      /                                      /     
 |     /                                      /      
 |    /                                      /       
 |   /                                      /        
 |  /                                      /         
 | /                                      /          
 |/                                      /           
 *--------------------------------------*            

Positions:
   0 Na    11.576125    4.918311    9.712853    ( 0.0000,  0.0000,  0.0000)
   1 Na     9.122396    7.114804   10.813447    ( 0.0000,  0.0000,  0.0000)
   2 Na     6.604144    9.367087   11.665434    ( 0.0000,  0.0000,  0.0000)
   3 Na     7.630553    8.042708    4.924337    ( 0.0000,  0.0000,  0.0000)
   4 Na     9.673268    6.417066    7.218429    ( 0.0000,  0.0000,  0.0000)
   5 Na     6.979481    8.751215    8.263599    ( 0.0000,  0.0000,  0.0000)

Unit cell:
           periodic     x           y           z      points  spacing
  1. axis:    no    16.000000    0.000000    0.000000    64     0.2500
  2. axis:    no     0.000000   16.000000    0.000000    64     0.2500
  3. axis:    no     0.000000    0.000000   16.000000    64     0.2500

  Lengths:  16.000000  16.000000  16.000000
  Angles:   90.000000  90.000000  90.000000

Effective grid spacing dv^(1/3) = 0.2500

                     log10-error:    total        iterations:
           time      wfs    density  energy       fermi  poisson
iter:   1  22:47:17  -0.79   +inf    17.237149    4             
iter:   2  22:47:23  -2.06  -0.67    17.279167    3             
iter:   3  22:47:30  -2.26  -0.72    17.409324    5             
iter:   4  22:47:36  -3.50  -1.40    17.410645    3             
iter:   5  22:47:42  -3.71  -1.49    17.410403    3             
iter:   6  22:47:49  -3.51  -1.67    17.410206    2             
iter:   7  22:47:55  -4.52  -2.11    17.410044    2             
iter:   8  22:48:02  -4.86  -2.25    17.409874    2             
iter:   9  22:48:08  -5.31  -2.44    17.409817    2             
iter:  10  22:48:14  -5.56  -2.73    17.409790    2             
iter:  11  22:48:21  -6.65  -3.01    17.409790    1             
iter:  12  22:48:27  -6.31  -3.03    17.409788    1             
iter:  13  22:48:33  -7.37  -3.38    17.409788    1             
iter:  14  22:48:40  -7.49  -3.42    17.409788    1             
iter:  15  22:48:46  -7.73  -3.59    17.409788    1             
iter:  16  22:48:53  -8.23  -3.78    17.409788    1             
iter:  17  22:48:59  -8.69  -3.90    17.409788    1             
iter:  18  22:49:05  -9.30  -4.02    17.409788    1             

Converged after 18 iterations.

Dipole moment: (0.032072, -0.017894, -0.011399) |e|*Ang

Energy contributions relative to reference atoms: (reference = -26511.662975)

Kinetic:         +2.950751
Potential:       -3.535395
External:        +0.000000
XC:             +17.992024
Entropy (-ST):   -0.000057
Local:           +0.002437
--------------------------
Free energy:    +17.409760
Extrapolated:   +17.409788

Non-local vdW-DF-cx correlation energy: 2.007875
Semilocal GGA_X_LV_RPW86+LDA_C_PW energy: -52.126706
(Not including atomic contributions)
Fermi level: -2.17394

 Band  Eigenvalues  Occupancy
    0     -3.63041    2.00000
    1     -2.74498    1.99998
    2     -2.73885    1.99998
    3     -1.63696    0.00004
    4     -1.49027    0.00000
    5     -1.45156    0.00000
    6     -1.24153    0.00000
    7     -0.69280    0.00000
    8     -0.68410    0.00000
    9     -0.57518    0.00000
   10     -0.56605    0.00000
   11     -0.48763    0.00000
   12     -0.45915    0.00000
   13     -0.26234    0.00000
   14     -0.04089    0.00000

Gap: 1.102 eV
Transition (v -> c):
  (s=0, k=0, n=2, [0.00, 0.00, 0.00]) -> (s=0, k=0, n=3, [0.00, 0.00, 0.00])

Forces in eV/Ang:
  0 Na    0.02270   -0.01950    0.00667
  1 Na   -0.00457    0.00412    0.00114
  2 Na   -0.01278    0.01186    0.01802
  3 Na   -0.00732    0.00333   -0.02401
  4 Na   -0.00198    0.00089   -0.00143
  5 Na    0.00387   -0.00081   -0.00043

System changes: positions 

Initializing position-dependent things.

Density initialized from wave functions
           .--------------------------------------.  
          /|                                      |  
         / |                                      |  
        /  |                                      |  
       /   |                                      |  
      /    |                                      |  
     /     |                                      |  
    /      |                                      |  
   /       |                                      |  
  /        |           Na                         |  
 *         |                                      |  
 |         |                                      |  
 |         |                Na                    |  
 |         |                                      |  
 |         |           Na                         |  
 |         |                    Na                |  
 |         |                                      |  
 |         |                 Na                   |  
 |         |                                      |  
 |         |             Na                       |  
 |         .--------------------------------------.  
 |        /                                      /   
 |       /                                      /    
 |      /                                      /     
 |     /                                      /      
 |    /                                      /       
 |   /                                      /        
 |  /                                      /         
 | /                                      /          
 |/                                      /           
 *--------------------------------------*            

Positions:
   0 Na    11.636980    4.866254    9.731552    ( 0.0000,  0.0000,  0.0000)
   1 Na     9.117024    7.120477   10.826154    ( 0.0000,  0.0000,  0.0000)
   2 Na     6.567536    9.401634   11.716995    ( 0.0000,  0.0000,  0.0000)
   3 Na     7.610836    8.052635    4.855402    ( 0.0000,  0.0000,  0.0000)
   4 Na     9.674893    6.413605    7.207417    ( 0.0000,  0.0000,  0.0000)
   5 Na     6.978527    8.756401    8.260500    ( 0.0000,  0.0000,  0.0000)

Unit cell:
           periodic     x           y           z      points  spacing
  1. axis:    no    16.000000    0.000000    0.000000    64     0.2500
  2. axis:    no     0.000000   16.000000    0.000000    64     0.2500
  3. axis:    no     0.000000    0.000000   16.000000    64     0.2500

  Lengths:  16.000000  16.000000  16.000000
  Angles:   90.000000  90.000000  90.000000

Effective grid spacing dv^(1/3) = 0.2500

                     log10-error:    total        iterations:
           time      wfs    density  energy       fermi  poisson
iter:   1  22:49:15  -1.91   +inf    17.398806    3             
iter:   2  22:49:21  -3.14  -1.25    17.401714    2             
iter:   3  22:49:28  -3.45  -1.31    17.410264    3             
iter:   4  22:49:34  -4.50  -1.95    17.410284    2             
iter:   5  22:49:41  -4.63  -2.01    17.410291    2             
iter:   6  22:49:47  -4.70  -2.29    17.410281    2             
iter:   7  22:49:53  -5.59  -2.52    17.410271    2             
iter:   8  22:50:00  -6.46  -2.79    17.410263    1             
iter:   9  22:50:06  -5.54  -2.82    17.410248    1             
iter:  10  22:50:12  -6.99  -3.47    17.410249    1             
iter:  11  22:50:19  -7.73  -3.51    17.410249    1             
iter:  12  22:50:25  -7.39  -3.56    17.410249    1             
iter:  13  22:50:31  -8.32  -3.81    17.410248    1             
iter:  14  22:50:37  -8.49  -3.84    17.410248    1             
iter:  15  22:50:43  -8.60  -3.93    17.410249    1             
iter:  16  22:50:50  -9.35  -4.02    17.410249    1             

Converged after 16 iterations.

Dipole moment: (0.029895, -0.015591, -0.013054) |e|*Ang

Energy contributions relative to reference atoms: (reference = -26511.662975)

Kinetic:         +1.685099
Potential:       -2.513686
External:        +0.000000
XC:             +18.236246
Entropy (-ST):   -0.000078
Local:           +0.002629
--------------------------
Free energy:    +17.410209
Extrapolated:   +17.410249

Non-local vdW-DF-cx correlation energy: 2.008382
Semilocal GGA_X_LV_RPW86+LDA_C_PW energy: -51.950210
(Not including atomic contributions)
Fermi level: -2.17868

 Band  Eigenvalues  Occupancy
    0     -3.60128    2.00000
    1     -2.73023    1.99997
    2     -2.72754    1.99997
    3     -1.66060    0.00006
    4     -1.49567    0.00000
    5     -1.45141    0.00000
    6     -1.22471    0.00000
    7     -0.70173    0.00000
    8     -0.69145    0.00000
    9     -0.58961    0.00000
   10     -0.56421    0.00000
   11     -0.49357    0.00000
   12     -0.47008    0.00000
   13     -0.27735    0.00000
   14     -0.04524    0.00000

Gap: 1.067 eV
Transition (v -> c):
  (s=0, k=0, n=2, [0.00, 0.00, 0.00]) -> (s=0, k=0, n=3, [0.00, 0.00, 0.00])

Forces in eV/Ang:
  0 Na   -0.02661    0.02246   -0.00762
  1 Na    0.00488   -0.00475   -0.01098
  2 Na    0.01001   -0.01076   -0.01943
  3 Na    0.00433   -0.00418    0.02518
  4 Na   -0.00032    0.00019    0.01172
  5 Na    0.00796   -0.00325    0.00111

System changes: positions 

Initializing position-dependent things.

Density initialized from wave functions
           .--------------------------------------.  
          /|                                      |  
         / |                                      |  
        /  |                                      |  
       /   |                                      |  
      /    |                                      |  
     /     |                                      |  
    /      |                                      |  
   /       |                                      |  
  /        |                                      |  
 *         |           Na                         |  
 |         |                                      |  
 |         |                Na                    |  
 |         |                                      |  
 |         |            Na                        |  
 |         |                    Na                |  
 |         |                                      |  
 |         |                 Na                   |  
 |         |                                      |  
 |         |             Na                       |  
 |         .--------------------------------------.  
 |        /                                      /   
 |       /                                      /    
 |      /                                      /     
 |     /                                      /      
 |    /                                      /       
 |   /                                      /        
 |  /                                      /         
 | /                                      /          
 |/                                      /           
 *--------------------------------------*            

Positions:
   0 Na    11.604318    4.893795    9.721485    ( 0.0000,  0.0000,  0.0000)
   1 Na     9.117749    7.118867   10.808586    ( 0.0000,  0.0000,  0.0000)
   2 Na     6.583507    9.385096   11.689956    ( 0.0000,  0.0000,  0.0000)
   3 Na     7.617785    8.046815    4.891018    ( 0.0000,  0.0000,  0.0000)
   4 Na     9.669980    6.418009    7.223778    ( 0.0000,  0.0000,  0.0000)
   5 Na     6.992660    8.748134    8.263188    ( 0.0000,  0.0000,  0.0000)

Unit cell:
           periodic     x           y           z      points  spacing
  1. axis:    no    16.000000    0.000000    0.000000    64     0.2500
  2. axis:    no     0.000000   16.000000    0.000000    64     0.2500
  3. axis:    no     0.000000    0.000000   16.000000    64     0.2500

  Lengths:  16.000000  16.000000  16.000000
  Angles:   90.000000  90.000000  90.000000

Effective grid spacing dv^(1/3) = 0.2500

                     log10-error:    total        iterations:
           time      wfs    density  energy       fermi  poisson
iter:   1  22:50:59  -2.34   +inf    17.403760    2             
iter:   2  22:51:06  -3.61  -1.45    17.404953    2             
iter:   3  22:51:12  -3.83  -1.52    17.408368    2             
iter:   4  22:51:19  -4.84  -2.16    17.408374    2             
iter:   5  22:51:25  -5.14  -2.21    17.408373    2             
iter:   6  22:51:32  -5.17  -2.50    17.408366    2             
iter:   7  22:51:38  -6.08  -2.71    17.408363    1             
iter:   8  22:51:45  -6.78  -2.95    17.408360    1             
iter:   9  22:51:51  -6.09  -3.04    17.408356    1             
iter:  10  22:51:57  -7.14  -3.63    17.408356    1             
iter:  11  22:52:04  -8.15  -3.69    17.408356    1             
iter:  12  22:52:10  -8.03  -3.72    17.408356    1             
iter:  13  22:52:16  -8.04  -3.85    17.408356    1             
iter:  14  22:52:23  -8.52  -4.12    17.408355    1             

Converged after 14 iterations.

Dipole moment: (0.032769, -0.018675, -0.011909) |e|*Ang

Energy contributions relative to reference atoms: (reference = -26511.662975)

Kinetic:         +2.447217
Potential:       -3.126085
External:        +0.000000
XC:             +18.084018
Entropy (-ST):   -0.000069
Local:           +0.003240
--------------------------
Free energy:    +17.408321
Extrapolated:   +17.408355

Non-local vdW-DF-cx correlation energy: 2.007765
Semilocal GGA_X_LV_RPW86+LDA_C_PW energy: -52.059920
(Not including atomic contributions)
Fermi level: -2.17730

 Band  Eigenvalues  Occupancy
    0     -3.62114    2.00000
    1     -2.73718    1.99997
    2     -2.73195    1.99997
    3     -1.65213    0.00005
    4     -1.48732    0.00000
    5     -1.44696    0.00000
    6     -1.23544    0.00000
    7     -0.69382    0.00000
    8     -0.69146    0.00000
    9     -0.58237    0.00000
   10     -0.56377    0.00000
   11     -0.49051    0.00000
   12     -0.46128    0.00000
   13     -0.26728    0.00000
   14     -0.04288    0.00000

Gap: 1.080 eV
Transition (v -> c):
  (s=0, k=0, n=2, [0.00, 0.00, 0.00]) -> (s=0, k=0, n=3, [0.00, 0.00, 0.00])

Forces in eV/Ang:
  0 Na    0.00014   -0.00026    0.00089
  1 Na    0.00048    0.00018    0.00586
  2 Na    0.00014   -0.00070   -0.00171
  3 Na    0.00018   -0.00170    0.00078
  4 Na    0.00134   -0.00214   -0.00559
  5 Na   -0.00222    0.00454   -0.00019

System changes: positions 

Initializing position-dependent things.

Density initialized from wave functions
           .--------------------------------------.  
          /|                                      |  
         / |                                      |  
        /  |                                      |  
       /   |                                      |  
      /    |                                      |  
     /     |                                      |  
    /      |                                      |  
   /       |                                      |  
  /        |                                      |  
 *         |                                      |  
 |         |          Na                          |  
 |         |                                      |  
 |         |       Na      Na                     |  
 |         |                Na                    |  
 |         |                                      |  
 |         |                                      |  
 |         |             Na   Na                  |  
 |         |                                      |  
 |         |                                      |  
 |         .--------------------------------------.  
 |        /                                      /   
 |       /                                      /    
 |      /                                      /     
 |     /                                      /      
 |    /                                      /       
 |   /                                      /        
 |  /                                      /         
 | /                                      /          
 |/                                      /           
 *--------------------------------------*            

Positions:
   0 Na     8.210231    9.489933    8.656516    ( 0.0000,  0.0000,  0.0000)
   1 Na     6.417931    8.101846   10.968460    ( 0.0000,  0.0000,  0.0000)
   2 Na     5.009862    9.947279    8.321395    ( 0.0000,  0.0000,  0.0000)
   3 Na     7.211492    9.790525    5.577356    ( 0.0000,  0.0000,  0.0000)
   4 Na     9.992557    7.848605    6.505352    ( 0.0000,  0.0000,  0.0000)
   5 Na     9.477264    6.754058    9.822530    ( 0.0000,  0.0000,  0.0000)

Unit cell:
           periodic     x           y           z      points  spacing
  1. axis:    no    16.000000    0.000000    0.000000    64     0.2500
  2. axis:    no     0.000000   16.000000    0.000000    64     0.2500
  3. axis:    no     0.000000    0.000000   16.000000    64     0.2500

  Lengths:  16.000000  16.000000  16.000000
  Angles:   90.000000  90.000000  90.000000

Effective grid spacing dv^(1/3) = 0.2500

                     log10-error:    total        iterations:
           time      wfs    density  energy       fermi  poisson
iter:   1  22:52:32  +0.31   +inf    15.870272    26            
iter:   2  22:52:38  -0.76  -0.13    16.179862    4             
iter:   3  22:52:45  -1.24  -0.17    17.420540    9             
iter:   4  22:52:51  -1.88  -0.47    17.471599    4             
iter:   5  22:52:58  -2.12  -0.55    17.522734    4             
iter:   6  22:53:04  -2.38  -0.82    17.493519    4             
iter:   7  22:53:11  -2.79  -0.98    17.488752    3             
iter:   8  22:53:17  -3.17  -1.22    17.480579    2             
iter:   9  22:53:24  -3.28  -1.37    17.472319    3             
iter:  10  22:53:30  -3.77  -1.54    17.473467    3             
iter:  11  22:53:36  -4.58  -1.89    17.473345    2             
iter:  12  22:53:43  -4.76  -1.95    17.473093    2             
iter:  13  22:53:49  -5.50  -2.15    17.473058    2             
iter:  14  22:53:56  -5.45  -2.20    17.473069    2             
iter:  15  22:54:02  -6.08  -2.30    17.473069    1             
iter:  16  22:54:09  -6.43  -2.34    17.473051    2             
iter:  17  22:54:15  -6.32  -2.38    17.473029    1             
iter:  18  22:54:21  -6.87  -2.43    17.473012    1             
iter:  19  22:54:28  -5.01  -2.45    17.472867    2             
iter:  20  22:54:34  -6.38  -3.14    17.472866    1             
iter:  21  22:54:40  -6.79  -3.23    17.472866    1             
iter:  22  22:54:47  -8.06  -3.53    17.472866    1             
iter:  23  22:54:53  -8.48  -3.55    17.472866    1             
iter:  24  22:55:00  -8.11  -3.61    17.472866    1             
iter:  25  22:55:06  -8.03  -3.70    17.472866    1             
iter:  26  22:55:13  -8.41  -3.89    17.472866    1             
iter:  27  22:55:19  -9.06  -3.92    17.472866    1             
iter:  28  22:55:26  -8.46  -3.98    17.472866    1             
iter:  29  22:55:32  -9.22  -4.16    17.472866    1             

Converged after 29 iterations.

Dipole moment: (-0.079131, -0.121523, -0.052928) |e|*Ang

Energy contributions relative to reference atoms: (reference = -26511.662975)

Kinetic:         +8.027156
Potential:       -7.409366
External:        +0.000000
XC:             +16.853927
Entropy (-ST):   -0.000063
Local:           +0.001181
--------------------------
Free energy:    +17.472835
Extrapolated:   +17.472866

Non-local vdW-DF-cx correlation energy: 1.957688
Semilocal GGA_X_LV_RPW86+LDA_C_PW energy: -52.876440
(Not including atomic contributions)
Fermi level: -2.14928

 Band  Eigenvalues  Occupancy
    0     -3.86429    2.00000
    1     -2.71558    1.99998
    2     -2.70775    1.99997
    3     -1.61867    0.00005
    4     -1.45445    0.00000
    5     -1.43275    0.00000
    6     -1.26390    0.00000
    7     -0.72335    0.00000
    8     -0.69161    0.00000
    9     -0.44493    0.00000
   10     -0.39988    0.00000
   11     -0.37166    0.00000
   12     -0.28240    0.00000
   13     -0.25143    0.00000
   14     -0.07596    0.00000

Gap: 1.089 eV
Transition (v -> c):
  (s=0, k=0, n=2, [0.00, 0.00, 0.00]) -> (s=0, k=0, n=3, [0.00, 0.00, 0.00])

Forces in eV/Ang:
  0 Na    0.10538    0.20261    0.07167
  1 Na   -0.09972   -0.06912    0.16308
  2 Na   -0.18899    0.05814   -0.01141
  3 Na   -0.05063    0.04929   -0.18499
  4 Na    0.13506   -0.08554   -0.12763
  5 Na    0.09892   -0.15522    0.08933

System changes: positions 

Initializing position-dependent things.

Density initialized from wave functions
           .--------------------------------------.  
          /|                                      |  
         / |                                      |  
        /  |                                      |  
       /   |                                      |  
      /    |                                      |  
     /     |                                      |  
    /      |                                      |  
   /       |                                      |  
  /        |                                      |  
 *         |                                      |  
 |         |         Na                           |  
 |         |                                      |  
 |         |       Na      NNa                    |  
 |         |                                      |  
 |         |                                      |  
 |         |                                      |  
 |         |             Na   Na                  |  
 |         |                                      |  
 |         |                                      |  
 |         .--------------------------------------.  
 |        /                                      /   
 |       /                                      /    
 |      /                                      /     
 |     /                                      /      
 |    /                                      /       
 |   /                                      /        
 |  /                                      /         
 | /                                      /          
 |/                                      /           
 *--------------------------------------*            

Positions:
   0 Na     8.292780    9.648642    8.712658    ( 0.0000,  0.0000,  0.0000)
   1 Na     6.339818    8.047701   11.096206    ( 0.0000,  0.0000,  0.0000)
   2 Na     4.861824    9.992821    8.312457    ( 0.0000,  0.0000,  0.0000)
   3 Na     7.171835    9.829139    5.432451    ( 0.0000,  0.0000,  0.0000)
   4 Na    10.098353    7.781597    6.405373    ( 0.0000,  0.0000,  0.0000)
   5 Na     9.554748    6.632471    9.892507    ( 0.0000,  0.0000,  0.0000)

Unit cell:
           periodic     x           y           z      points  spacing
  1. axis:    no    16.000000    0.000000    0.000000    64     0.2500
  2. axis:    no     0.000000   16.000000    0.000000    64     0.2500
  3. axis:    no     0.000000    0.000000   16.000000    64     0.2500

  Lengths:  16.000000  16.000000  16.000000
  Angles:   90.000000  90.000000  90.000000

Effective grid spacing dv^(1/3) = 0.2500

                     log10-error:    total        iterations:
           time      wfs    density  energy       fermi  poisson
iter:   1  22:55:42  -0.83   +inf    17.289115    5             
iter:   2  22:55:48  -1.97  -0.77    17.309658    3             
iter:   3  22:55:55  -2.14  -0.82    17.380659    6             
iter:   4  22:56:01  -3.46  -1.34    17.383452    3             
iter:   5  22:56:08  -3.41  -1.47    17.383391    3             
iter:   6  22:56:14  -3.53  -1.71    17.382216    2             
iter:   7  22:56:20  -3.71  -1.75    17.382134    3             
iter:   8  22:56:27  -4.87  -2.22    17.382197    2             
iter:   9  22:56:33  -5.21  -2.35    17.382150    2             
iter:  10  22:56:40  -5.91  -2.59    17.382136    1             
iter:  11  22:56:46  -6.22  -2.66    17.382122    2             
iter:  12  22:56:53  -5.69  -2.74    17.382090    1             
iter:  13  22:56:59  -6.29  -2.95    17.382085    1             
iter:  14  22:57:05  -6.82  -3.09    17.382084    1             
iter:  15  22:57:12  -7.59  -3.19    17.382084    1             
iter:  16  22:57:18  -6.91  -3.24    17.382084    1             
iter:  17  22:57:24  -8.03  -3.82    17.382084    1             
iter:  18  22:57:31  -8.46  -3.84    17.382084    1             
iter:  19  22:57:37  -8.02  -3.92    17.382084    1             
iter:  20  22:57:43  -9.17  -4.03    17.382084    1             

Converged after 20 iterations.

Dipole moment: (-0.075416, -0.105484, -0.050147) |e|*Ang

Energy contributions relative to reference atoms: (reference = -26511.662975)

Kinetic:         +2.099359
Potential:       -2.730586
External:        +0.000000
XC:             +18.012152
Entropy (-ST):   -0.000123
Local:           +0.001220
--------------------------
Free energy:    +17.382022
Extrapolated:   +17.382084

Non-local vdW-DF-cx correlation energy: 1.960972
Semilocal GGA_X_LV_RPW86+LDA_C_PW energy: -52.068109
(Not including atomic contributions)
Fermi level: -2.14296

 Band  Eigenvalues  Occupancy
    0     -3.71505    2.00000
    1     -2.67127    1.99995
    2     -2.66661    1.99994
    3     -1.64766    0.00010
    4     -1.49923    0.00001
    5     -1.47645    0.00000
    6     -1.21335    0.00000
    7     -0.75514    0.00000
    8     -0.72111    0.00000
    9     -0.45626    0.00000
   10     -0.43764    0.00000
   11     -0.40601    0.00000
   12     -0.34218    0.00000
   13     -0.29938    0.00000
   14     -0.09894    0.00000

Gap: 1.019 eV
Transition (v -> c):
  (s=0, k=0, n=2, [0.00, 0.00, 0.00]) -> (s=0, k=0, n=3, [0.00, 0.00, 0.00])

Forces in eV/Ang:
  0 Na   -0.00442   -0.01336   -0.00330
  1 Na    0.00592   -0.00012   -0.00838
  2 Na    0.00610    0.00065    0.00208
  3 Na    0.00264    0.00141    0.00608
  4 Na   -0.00525    0.00090    0.00732
  5 Na   -0.00482    0.01068   -0.00371

System changes: positions 

Initializing position-dependent things.

Density initialized from wave functions
           .--------------------------------------.  
          /|                                      |  
         / |                                      |  
        /  |                                      |  
       /   |                                      |  
      /    |                                      |  
     /     |                                      |  
    /      |                                      |  
   /       |                                      |  
  /        |                                      |  
 *         |           Na                         |  
 |         |                                      |  
 |         |                Na                    |  
 |         |                                      |  
 |         |            Na                        |  
 |         |                    Na                |  
 |         |                                      |  
 |         |                 Na                   |  
 |         |                                      |  
 |         |             Na                       |  
 |         .--------------------------------------.  
 |        /                                      /   
 |       /                                      /    
 |      /                                      /     
 |     /                                      /      
 |    /                                      /       
 |   /                                      /        
 |  /                                      /         
 | /                                      /          
 |/                                      /           
 *--------------------------------------*            

Positions:
   0 Na    11.604318    4.893795    9.721485    ( 0.0000,  0.0000,  0.0000)
   1 Na     9.117749    7.118867   10.808586    ( 0.0000,  0.0000,  0.0000)
   2 Na     6.583507    9.385096   11.689956    ( 0.0000,  0.0000,  0.0000)
   3 Na     7.617785    8.046815    4.891018    ( 0.0000,  0.0000,  0.0000)
   4 Na     9.669980    6.418009    7.223778    ( 0.0000,  0.0000,  0.0000)
   5 Na     6.992660    8.748134    8.263188    ( 0.0000,  0.0000,  0.0000)

Unit cell:
           periodic     x           y           z      points  spacing
  1. axis:    no    16.000000    0.000000    0.000000    64     0.2500
  2. axis:    no     0.000000   16.000000    0.000000    64     0.2500
  3. axis:    no     0.000000    0.000000   16.000000    64     0.2500

  Lengths:  16.000000  16.000000  16.000000
  Angles:   90.000000  90.000000  90.000000

Effective grid spacing dv^(1/3) = 0.2500

                     log10-error:    total        iterations:
           time      wfs    density  energy       fermi  poisson
iter:   1  22:57:53  +0.42   +inf    13.604263    27            
iter:   2  22:57:59  -0.52  -0.01    14.531465    5             
iter:   3  22:58:06  -1.08  -0.05    16.502311    9             
iter:   4  22:58:12  -1.42  -0.21    17.437701    9             
iter:   5  22:58:18  -2.45  -0.57    17.464942    1             
iter:   6  22:58:25  -2.05  -0.60    17.447713    6             
iter:   7  22:58:31  -2.78  -0.87    17.415159    3             
iter:   8  22:58:38  -2.60  -0.93    17.419958    4             
iter:   9  22:58:44  -3.83  -1.29    17.417401    3             
iter:  10  22:58:50  -3.18  -1.36    17.409373    2             
iter:  11  22:58:57  -3.95  -1.72    17.409013    2             
iter:  12  22:59:03  -5.09  -1.82    17.409232    2             
iter:  13  22:59:10  -5.35  -1.91    17.409157    2             
iter:  14  22:59:16  -4.72  -1.97    17.408646    2             
iter:  15  22:59:23  -5.58  -2.13    17.408678    2             
iter:  16  22:59:29  -6.06  -2.19    17.408681    1             
iter:  17  22:59:35  -5.77  -2.23    17.408619    1             
iter:  18  22:59:42  -5.69  -2.30    17.408509    1             
iter:  19  22:59:48  -5.30  -2.39    17.408396    2             
iter:  20  22:59:55  -5.74  -2.69    17.408366    2             
iter:  21  23:00:01  -6.89  -2.90    17.408364    1             
iter:  22  23:00:07  -6.04  -2.93    17.408356    1             
iter:  23  23:00:14  -7.61  -3.37    17.408356    1             
iter:  24  23:00:20  -7.75  -3.44    17.408356    1             
iter:  25  23:00:26  -8.03  -3.53    17.408355    1             
iter:  26  23:00:33  -7.69  -3.60    17.408355    1             
iter:  27  23:00:39  -8.36  -4.01    17.408356    1             

Converged after 27 iterations.

Dipole moment: (0.032911, -0.018827, -0.011809) |e|*Ang

Energy contributions relative to reference atoms: (reference = -26511.662975)

Kinetic:         +2.442732
Potential:       -3.121841
External:        +0.000000
XC:             +18.084606
Entropy (-ST):   -0.000069
Local:           +0.002893
--------------------------
Free energy:    +17.408321
Extrapolated:   +17.408356

Non-local vdW-DF-cx correlation energy: 2.007753
Semilocal GGA_X_LV_RPW86+LDA_C_PW energy: -52.059667
(Not including atomic contributions)
Fermi level: -2.17732

 Band  Eigenvalues  Occupancy
    0     -3.62117    2.00000
    1     -2.73722    1.99997
    2     -2.73197    1.99997
    3     -1.65215    0.00005
    4     -1.48739    0.00000
    5     -1.44697    0.00000
    6     -1.23547    0.00000
    7     -0.69382    0.00000
    8     -0.69148    0.00000
    9     -0.58238    0.00000
   10     -0.56380    0.00000
   11     -0.49052    0.00000
   12     -0.46129    0.00000
   13     -0.26732    0.00000
   14     -0.03966    0.00000

Gap: 1.080 eV
Transition (v -> c):
  (s=0, k=0, n=2, [0.00, 0.00, 0.00]) -> (s=0, k=0, n=3, [0.00, 0.00, 0.00])
System changes: positions 

Initializing position-dependent things.

Density initialized from wave functions
           .--------------------------------------.  
          /|                                      |  
         / |                                      |  
        /  |                                      |  
       /   |                                      |  
      /    |                                      |  
     /     |                                      |  
    /      |                                      |  
   /       |                                      |  
  /        |                                      |  
 *         |                                      |  
 |         |         Na                           |  
 |         |                                      |  
 |         |       Na      NNa                    |  
 |         |                                      |  
 |         |                                      |  
 |         |                                      |  
 |         |             Na   Na                  |  
 |         |                                      |  
 |         |                                      |  
 |         .--------------------------------------.  
 |        /                                      /   
 |       /                                      /    
 |      /                                      /     
 |     /                                      /      
 |    /                                      /       
 |   /                                      /        
 |  /                                      /         
 | /                                      /          
 |/                                      /           
 *--------------------------------------*            

Positions:
   0 Na     8.292780    9.648642    8.712658    ( 0.0000,  0.0000,  0.0000)
   1 Na     6.339818    8.047701   11.096206    ( 0.0000,  0.0000,  0.0000)
   2 Na     4.861824    9.992821    8.312457    ( 0.0000,  0.0000,  0.0000)
   3 Na     7.171835    9.829139    5.432451    ( 0.0000,  0.0000,  0.0000)
   4 Na    10.098353    7.781597    6.405373    ( 0.0000,  0.0000,  0.0000)
   5 Na     9.554748    6.632471    9.892507    ( 0.0000,  0.0000,  0.0000)

Unit cell:
           periodic     x           y           z      points  spacing
  1. axis:    no    16.000000    0.000000    0.000000    64     0.2500
  2. axis:    no     0.000000   16.000000    0.000000    64     0.2500
  3. axis:    no     0.000000    0.000000   16.000000    64     0.2500

  Lengths:  16.000000  16.000000  16.000000
  Angles:   90.000000  90.000000  90.000000

Effective grid spacing dv^(1/3) = 0.2500

                     log10-error:    total        iterations:
           time      wfs    density  energy       fermi  poisson
iter:   1  23:00:46  +0.27   +inf    16.049318    24            
iter:   2  23:00:53  -0.78  -0.14    16.312628    4             
iter:   3  23:00:59  -1.26  -0.18    17.344955    8             
iter:   4  23:01:06  -1.91  -0.46    17.381083    4             
iter:   5  23:01:12  -2.12  -0.54    17.435038    4             
iter:   6  23:01:19  -2.43  -0.82    17.401578    4             
iter:   7  23:01:25  -2.77  -0.97    17.400452    3             
iter:   8  23:01:31  -3.05  -1.19    17.389985    2             
iter:   9  23:01:38  -3.33  -1.35    17.382552    3             
iter:  10  23:01:44  -3.79  -1.52    17.382940    2             
iter:  11  23:01:51  -4.44  -1.81    17.382669    2             
iter:  12  23:01:57  -4.79  -1.87    17.382421    2             
iter:  13  23:02:03  -5.38  -2.03    17.382372    2             
iter:  14  23:02:10  -5.31  -2.07    17.382419    2             
iter:  15  23:02:16  -5.86  -2.15    17.382418    2             
iter:  16  23:02:23  -5.99  -2.21    17.382348    2             
iter:  17  23:02:29  -5.48  -2.26    17.382226    1             
iter:  18  23:02:35  -6.31  -2.38    17.382195    1             
iter:  19  23:02:42  -5.61  -2.41    17.382132    2             
iter:  20  23:02:48  -6.29  -2.57    17.382107    1             
iter:  21  23:02:55  -6.12  -2.61    17.382089    2             
iter:  22  23:03:01  -6.33  -2.78    17.382086    1             
iter:  23  23:03:07  -6.74  -2.94    17.382082    1             
iter:  24  23:03:14  -6.90  -3.06    17.382085    1             
iter:  25  23:03:20  -6.91  -3.29    17.382083    1             
iter:  26  23:03:26  -7.96  -3.49    17.382083    1             
iter:  27  23:03:33  -7.38  -3.53    17.382083    1             
iter:  28  23:03:39  -8.76  -3.87    17.382084    1             
iter:  29  23:03:46  -8.57  -3.88    17.382084    1             
iter:  30  23:03:52  -8.69  -4.02    17.382084    1             

Converged after 30 iterations.

Dipole moment: (-0.075527, -0.105330, -0.050060) |e|*Ang

Energy contributions relative to reference atoms: (reference = -26511.662975)

Kinetic:         +2.097574
Potential:       -2.729671
External:        +0.000000
XC:             +18.012487
Entropy (-ST):   -0.000123
Local:           +0.001755
--------------------------
Free energy:    +17.382023
Extrapolated:   +17.382084

Non-local vdW-DF-cx correlation energy: 1.960939
Semilocal GGA_X_LV_RPW86+LDA_C_PW energy: -52.067634
(Not including atomic contributions)
Fermi level: -2.14304

 Band  Eigenvalues  Occupancy
    0     -3.71514    2.00000
    1     -2.67137    1.99995
    2     -2.66671    1.99994
    3     -1.64771    0.00010
    4     -1.49931    0.00001
    5     -1.47657    0.00000
    6     -1.21341    0.00000
    7     -0.75518    0.00000
    8     -0.72116    0.00000
    9     -0.45626    0.00000
   10     -0.43770    0.00000
   11     -0.40608    0.00000
   12     -0.34221    0.00000
   13     -0.29941    0.00000
   14     -0.09893    0.00000

Gap: 1.019 eV
Transition (v -> c):
  (s=0, k=0, n=2, [0.00, 0.00, 0.00]) -> (s=0, k=0, n=3, [0.00, 0.00, 0.00])
Timing:                                      incl.     excl.
-------------------------------------------------------------------
Density initialized from wave functions:     4.229     4.228   0.3% |
 Symmetrize density:                         0.000     0.000   0.0% |
Forces:                                     14.094    14.094   0.9% |
Hamiltonian:                                53.052     0.086   0.0% |
 Atomic:                                     2.417     0.012   0.0% |
  XC Correction:                             2.405     2.405   0.2% |
 Calculate atomic Hamiltonians:              3.380     3.380   0.2% |
 Communicate:                                0.000     0.000   0.0% |
 Initialize Hamiltonian:                     0.000     0.000   0.0% |
 Poisson:                                    0.170     0.170   0.0% |
 XC 3D grid:                                46.998     0.556   0.0% |
  van der Waals:                            46.441     1.411   0.1% |
   libvdwxc nonlocal:                       33.391    33.391   2.2% ||
   redistribute:                             1.458     1.458   0.1% |
   semilocal:                               10.181    10.181   0.7% |
LCAO initialization:                         0.120     0.019   0.0% |
 LCAO eigensolver:                           0.012     0.000   0.0% |
  Calculate projections:                     0.000     0.000   0.0% |
  DenseAtomicCorrection:                     0.000     0.000   0.0% |
  Distribute overlap matrix:                 0.000     0.000   0.0% |
  Orbital Layouts:                           0.000     0.000   0.0% |
  Potential matrix:                          0.011     0.011   0.0% |
 LCAO to grid:                               0.066     0.066   0.0% |
 Set positions (LCAO WFS):                   0.023     0.004   0.0% |
  Basic WFS set positions:                   0.000     0.000   0.0% |
  Basis functions set positions:             0.000     0.000   0.0% |
  P tci:                                     0.011     0.011   0.0% |
  ST tci:                                    0.003     0.003   0.0% |
  mktci:                                     0.005     0.005   0.0% |
PWDescriptor:                                0.016     0.016   0.0% |
Redistribute:                                0.007     0.007   0.0% |
SCF-cycle:                                1437.699     0.201   0.0% |
 Davidson:                                 149.187    35.920   2.4% ||
  Apply H:                                  20.771    19.314   1.3% ||
   HMM T:                                    1.457     1.457   0.1% |
  Subspace diag:                            27.706     0.041   0.0% |
   calc_h_matrix:                           23.262     2.332   0.2% |
    Apply H:                                20.930    19.419   1.3% ||
     HMM T:                                  1.511     1.511   0.1% |
   diagonalize:                              0.070     0.070   0.0% |
   rotate_psi:                               4.332     4.332   0.3% |
  calc. matrices:                           57.014    15.369   1.0% |
   Apply H:                                 41.645    38.745   2.5% ||
    HMM T:                                   2.900     2.900   0.2% |
  diagonalize:                               0.270     0.270   0.0% |
  rotate_psi:                                7.507     7.507   0.5% |
 Density:                                  108.252     0.009   0.0% |
  Atomic density matrices:                   0.232     0.232   0.0% |
  Mix:                                      94.292    94.292   6.2% |-|
  Multipole moments:                         0.057     0.057   0.0% |
  Pseudo density:                           13.662    13.651   0.9% |
   Symmetrize density:                       0.011     0.011   0.0% |
 Hamiltonian:                             1179.603     1.937   0.1% |
  Atomic:                                   53.560     0.262   0.0% |
   XC Correction:                           53.298    53.298   3.5% ||
  Calculate atomic Hamiltonians:            74.838    74.838   4.9% |-|
  Communicate:                               0.004     0.004   0.0% |
  Poisson:                                   3.546     3.546   0.2% |
  XC 3D grid:                             1045.719    12.330   0.8% |
   van der Waals:                         1033.389    31.860   2.1% ||
    libvdwxc nonlocal:                     741.252   741.252  48.8% |-------------------|
    redistribute:                           32.267    32.267   2.1% ||
    semilocal:                             228.010   228.010  15.0% |-----|
 Orthonormalize:                             0.456     0.002   0.0% |
  calc_s_matrix:                             0.069     0.069   0.0% |
  inverse-cholesky:                          0.004     0.004   0.0% |
  projections:                               0.269     0.269   0.0% |
  rotate_psi_s:                              0.111     0.111   0.0% |
Set symmetry:                                0.001     0.001   0.0% |
Other:                                      11.069    11.069   0.7% |
-------------------------------------------------------------------
Total:                                              1520.288 100.0%

Memory usage: 1.03 GiB
Date: Wed Feb 12 23:03:52 2020
