
  ___ ___ ___ _ _ _  
 |   |   |_  | | | | 
 | | | | | . | | | | 
 |__ |  _|___|_____|  19.8.1
 |___|_|             

User:   ericlin@hebbe03-8
Date:   Tue Feb  4 22:26:33 2020
Arch:   x86_64
Pid:    15197
Python: 3.7.2
gpaw:   /apps/Hebbe7/software/MPI/GCC/8.2.0-2.31.1/OpenMPI/3.1.3/GPAW/19.8.1-Python-3.7.2-libvdwxc/lib/python3.7/site-packages/gpaw
_gpaw:  /apps/Hebbe7/software/MPI/GCC/8.2.0-2.31.1/OpenMPI/3.1.3/GPAW/19.8.1-Python-3.7.2-libvdwxc/bin/
        gpaw-python
ase:    /apps/Hebbe7/software/MPI/GCC/8.2.0-2.31.1/OpenMPI/3.1.3/ASE/3.18.0-Python-3.7.2/lib/python3.7/site-packages/ase (version 3.18.0)
numpy:  /apps/Hebbe7/software/MPI/GCC/8.2.0-2.31.1/OpenMPI/3.1.3/SciPy-bundle/2019.03/lib/python3.7/site-packages/numpy (version 1.16.2)
scipy:  /apps/Hebbe7/software/MPI/GCC/8.2.0-2.31.1/OpenMPI/3.1.3/SciPy-bundle/2019.03/lib/python3.7/site-packages/scipy (version 1.2.1)
libxc:  4.3.4
units:  Angstrom and eV
cores:  1

Input parameters:
  h: 0.25
  mode: {ecut: 500.0,
         gammacentered: False,
         name: pw}
  nbands: 10
  occupations: {name: fermi-dirac,
                width: 0.05}
  setups: {Na: 1}

System changes: positions, numbers, cell, pbc, initial_charges, initial_magmoms 

Initialize ...

Na-setup:
  name: Sodium
  id: fa5c50181d04022fed15b2593599c257
  Z: 11
  valence: 1
  core: 10
  charge: 0.0
  file: /apps/Common/Core/GPAW-setups/0.9.20000/Na.1.LDA.gz
  compensation charges: gauss, rc=0.43, lmax=2
  cutoffs: 2.36(filt), 3.60(core),
  valence states:
                energy  radius
    3s(1.00)    -2.819   1.349
    3p(0.00)    -0.774   1.349
    *s          24.392   1.349

  Using partial waves for Na as LCAO basis

Reference energy: -26392.251304

Spin-paired calculation

Occupation numbers:
  Fermi-Dirac: width=0.0500 eV

Convergence criteria:
  Maximum total energy change: 0.0005 eV / electron
  Maximum integral of absolute density change: 0.0001 electrons
  Maximum integral of absolute eigenstate change: 4e-08 eV^2
  Maximum number of iterations: 333

Symmetries present (total): 1

  ( 1  0  0)
  ( 0  1  0)
  ( 0  0  1)

1 k-point (Gamma)
1 k-point in the irreducible part of the Brillouin zone
       k-points in crystal coordinates                weights
   0:     0.00000000    0.00000000    0.00000000          1/1

Wave functions: Plane wave expansion
  Cutoff energy: 500.000 eV
  Number of coefficients: 103959 (reduced to 51980)
  Pulay-stress correction: 0.000000 eV/Ang^3 (de/decut=0.000000)
  Using FFTW library
  ScaLapack parameters: grid=1x1, blocksize=None
  Wavefunction extrapolation:
    Improved wavefunction reuse through dual PAW basis 

Eigensolver
   Davidson(niter=2, smin=None, normalize=True) 

Densities:
  Coarse grid: 64*64*64 grid
  Fine grid: 128*128*128 grid
  Total Charge: 0.000000 

Density mixing:
  Method: separate
  Backend: pulay
  Linear mixing parameter: 0.05
  Mixing with 5 old densities
  Damping of long wave oscillations: 50 

Hamiltonian:
  XC and Coulomb potentials evaluated on a 128*128*128 grid
  Using the LDA Exchange-Correlation functional
 

Memory estimate:
  Process memory now: 513.23 MiB
  Calculator: 186.85 MiB
    Density: 123.30 MiB
      Arrays: 52.00 MiB
      Localized functions: 51.30 MiB
      Mixer: 20.00 MiB
    Hamiltonian: 35.05 MiB
      Arrays: 34.00 MiB
      XC: 0.00 MiB
      Poisson: 0.00 MiB
      vbar: 1.05 MiB
    Wavefunctions: 28.50 MiB
      Arrays psit_nG: 7.93 MiB
      Eigensolver: 11.91 MiB
      Projections: 0.00 MiB
      Projectors: 2.78 MiB
      PW-descriptor: 5.89 MiB

Total number of cores used: 1

Number of atoms: 6
Number of atomic orbitals: 24
Number of bands in calculation: 10
Bands to converge: occupied states only
Number of valence electrons: 6

... initialized

Initializing position-dependent things.

Density initialized from atomic densities
Creating initial wave functions:
  10 bands from LCAO basis set

           .--------------------------------------.  
          /|                                      |  
         / |                                      |  
        /  |                                      |  
       /   |                                      |  
      /    |                                      |  
     /     |                                      |  
    /      |                                      |  
   /       |                                      |  
  /        |                                      |  
 *         |           Na                         |  
 |         |                                      |  
 |         |                Na                    |  
 |         |                                      |  
 |         |            Na                        |  
 |         |                    Na                |  
 |         |                                      |  
 |         |                Na                    |  
 |         |                                      |  
 |         |             Na                       |  
 |         .--------------------------------------.  
 |        /                                      /   
 |       /                                      /    
 |      /                                      /     
 |     /                                      /      
 |    /                                      /       
 |   /                                      /        
 |  /                                      /         
 | /                                      /          
 |/                                      /           
 *--------------------------------------*            

Positions:
   0 Na    11.424955    5.046215    9.661160    ( 0.0000,  0.0000,  0.0000)
   1 Na     9.091214    7.135542   10.719357    ( 0.0000,  0.0000,  0.0000)
   2 Na     6.710298    9.263471   11.516303    ( 0.0000,  0.0000,  0.0000)
   3 Na     7.680133    8.011559    5.125248    ( 0.0000,  0.0000,  0.0000)
   4 Na     9.624253    6.463545    7.292195    ( 0.0000,  0.0000,  0.0000)
   5 Na     7.055205    8.690646    8.283979    ( 0.0000,  0.0000,  0.0000)

Unit cell:
           periodic     x           y           z      points  spacing
  1. axis:    no    16.000000    0.000000    0.000000    64     0.2500
  2. axis:    no     0.000000   16.000000    0.000000    64     0.2500
  3. axis:    no     0.000000    0.000000   16.000000    64     0.2500

  Lengths:  16.000000  16.000000  16.000000
  Angles:   90.000000  90.000000  90.000000

Effective grid spacing dv^(1/3) = 0.2500

                     log10-error:    total        iterations:
           time      wfs    density  energy       fermi  poisson
iter:   1  22:26:37  +0.23   +inf    -5.391134    2             
iter:   2  22:26:38  -1.05  -0.50    -5.394542    3             
iter:   3  22:26:40  -1.62  -0.52    -5.267547    6             
iter:   4  22:26:41  -2.05  -0.78    -5.267331    3             
iter:   5  22:26:43  -2.30  -0.88    -5.267010    3             
iter:   6  22:26:45  -2.63  -1.36    -5.269240    3             
iter:   7  22:26:46  -3.05  -1.56    -5.269217    2             
iter:   8  22:26:48  -3.36  -1.58    -5.267808    3             
iter:   9  22:26:49  -3.79  -2.20    -5.267766    2             
iter:  10  22:26:51  -4.17  -2.37    -5.267783    2             
iter:  11  22:26:52  -4.54  -2.41    -5.267788    1             
iter:  12  22:26:54  -4.89  -2.38    -5.267795    1             
iter:  13  22:26:56  -5.22  -2.43    -5.267781    1             
iter:  14  22:26:57  -5.61  -2.93    -5.267780    1             
iter:  15  22:26:59  -5.98  -3.03    -5.267781    1             
iter:  16  22:27:00  -6.33  -3.08    -5.267781    1             
iter:  17  22:27:02  -6.72  -3.30    -5.267781    1             
iter:  18  22:27:03  -7.06  -3.36    -5.267781    1             
iter:  19  22:27:05  -7.46  -3.54    -5.267781    1             
iter:  20  22:27:07  -7.82  -3.59    -5.267781    1             
iter:  21  22:27:08  -8.11  -3.66    -5.267781    1             
iter:  22  22:27:10  -8.51  -3.73    -5.267781    1             
iter:  23  22:27:11  -8.71  -3.75    -5.267781    1             
iter:  24  22:27:13  -9.03  -3.85    -5.267781    1             
iter:  25  22:27:14  -8.83  -3.93    -5.267781    1             
iter:  26  22:27:16  -9.64  -4.54    -5.267781    1             

Converged after 26 iterations.

Dipole moment: (0.017422, -0.008219, -0.011515) |e|*Ang

Energy contributions relative to reference atoms: (reference = -26392.251304)

Kinetic:        +11.797665
Potential:      -10.858106
External:        +0.000000
XC:              -6.206201
Entropy (-ST):   -0.000016
Local:           -0.001131
--------------------------
Free energy:     -5.267789
Extrapolated:    -5.267781

Fermi level: -2.37541

 Band  Eigenvalues  Occupancy
    0     -4.01732    2.00000
    1     -3.01341    1.99999
    2     -3.01091    1.99999
    3     -1.76692    0.00001
    4     -1.64145    0.00000
    5     -1.62152    0.00000
    6     -1.41918    0.00000
    7     -0.66809    0.00000
    8     -0.63790    0.00000
    9     -0.58074    0.00000

Gap: 1.244 eV
Transition (v -> c):
  (s=0, k=0, n=2, [0.00, 0.00, 0.00]) -> (s=0, k=0, n=3, [0.00, 0.00, 0.00])
System changes: positions 

Initializing position-dependent things.

Density initialized from wave functions
           .--------------------------------------.  
          /|                                      |  
         / |                                      |  
        /  |                                      |  
       /   |                                      |  
      /    |                                      |  
     /     |                                      |  
    /      |                                      |  
   /       |                                      |  
  /        |                                      |  
 *         |                                      |  
 |         |          Na                          |  
 |         |                                      |  
 |         |       Na      Na                     |  
 |         |                Na                    |  
 |         |                                      |  
 |         |                                      |  
 |         |             Na   Na                  |  
 |         |                                      |  
 |         |                                      |  
 |         .--------------------------------------.  
 |        /                                      /   
 |       /                                      /    
 |      /                                      /     
 |     /                                      /      
 |    /                                      /       
 |   /                                      /        
 |  /                                      /         
 | /                                      /          
 |/                                      /           
 *--------------------------------------*            

Positions:
   0 Na     8.210231    9.489933    8.656516    ( 0.0000,  0.0000,  0.0000)
   1 Na     6.417931    8.101846   10.968460    ( 0.0000,  0.0000,  0.0000)
   2 Na     5.009862    9.947279    8.321395    ( 0.0000,  0.0000,  0.0000)
   3 Na     7.211492    9.790525    5.577356    ( 0.0000,  0.0000,  0.0000)
   4 Na     9.992557    7.848605    6.505352    ( 0.0000,  0.0000,  0.0000)
   5 Na     9.477264    6.754058    9.822530    ( 0.0000,  0.0000,  0.0000)

Unit cell:
           periodic     x           y           z      points  spacing
  1. axis:    no    16.000000    0.000000    0.000000    64     0.2500
  2. axis:    no     0.000000   16.000000    0.000000    64     0.2500
  3. axis:    no     0.000000    0.000000   16.000000    64     0.2500

  Lengths:  16.000000  16.000000  16.000000
  Angles:   90.000000  90.000000  90.000000

Effective grid spacing dv^(1/3) = 0.2500

                     log10-error:    total        iterations:
           time      wfs    density  energy       fermi  poisson
iter:   1  22:27:18  +0.39   +inf    -7.867678    22            
iter:   2  22:27:20  -0.44  -0.08    -7.749037    3             
iter:   3  22:27:22  -1.15  -0.10    -6.658361    6             
iter:   4  22:27:23  -1.26  -0.21    -5.638962    29            
iter:   5  22:27:25  -2.17  -0.46    -5.487923    3             
iter:   6  22:27:26  -2.34  -0.54    -5.327999    4             
iter:   7  22:27:28  -2.47  -0.85    -5.352648    5             
iter:   8  22:27:29  -2.82  -0.95    -5.324722    4             
iter:   9  22:27:31  -3.44  -1.32    -5.325073    2             
iter:  10  22:27:33  -3.82  -1.45    -5.326144    3             
iter:  11  22:27:34  -4.11  -1.63    -5.325437    2             
iter:  12  22:27:36  -4.77  -1.92    -5.325408    2             
iter:  13  22:27:37  -4.79  -1.96    -5.325476    2             
iter:  14  22:27:39  -5.22  -2.14    -5.325443    2             
iter:  15  22:27:40  -5.73  -2.27    -5.325479    1             
iter:  16  22:27:42  -5.99  -2.37    -5.325482    2             
iter:  17  22:27:44  -6.26  -2.49    -5.325471    2             
iter:  18  22:27:45  -6.98  -2.67    -5.325469    1             
iter:  19  22:27:47  -7.17  -2.71    -5.325469    1             
iter:  20  22:27:48  -6.79  -2.78    -5.325478    1             
iter:  21  22:27:50  -7.43  -2.98    -5.325477    1             
iter:  22  22:27:52  -7.12  -3.04    -5.325477    1             
iter:  23  22:27:53  -7.96  -3.15    -5.325476    1             
iter:  24  22:27:55  -8.16  -3.21    -5.325476    1             
iter:  25  22:27:56  -7.96  -3.26    -5.325476    1             
iter:  26  22:27:58  -8.56  -3.35    -5.325475    1             
iter:  27  22:27:59  -7.85  -3.37    -5.325475    1             
iter:  28  22:28:01  -9.11  -3.50    -5.325475    1             
iter:  29  22:28:02  -7.87  -3.52    -5.325475    1             
iter:  30  22:28:04  -8.35  -3.83    -5.325475    1             
iter:  31  22:28:06  -8.70  -3.98    -5.325475    1             
iter:  32  22:28:07  -9.64  -4.38    -5.325475    1             

Converged after 32 iterations.

Dipole moment: (-0.066149, -0.105451, -0.045033) |e|*Ang

Energy contributions relative to reference atoms: (reference = -26392.251304)

Kinetic:        +11.979082
Potential:      -10.845443
External:        +0.000000
XC:              -6.457235
Entropy (-ST):   -0.000035
Local:           -0.001862
--------------------------
Free energy:     -5.325493
Extrapolated:    -5.325475

Fermi level: -2.34704

 Band  Eigenvalues  Occupancy
    0     -4.11787    2.00000
    1     -2.94474    1.99999
    2     -2.93675    1.99998
    3     -1.78395    0.00003
    4     -1.63174    0.00000
    5     -1.62301    0.00000
    6     -1.33659    0.00000
    7     -0.74467    0.00000
    8     -0.73330    0.00000
    9     -0.37059    0.00000

Gap: 1.153 eV
Transition (v -> c):
  (s=0, k=0, n=2, [0.00, 0.00, 0.00]) -> (s=0, k=0, n=3, [0.00, 0.00, 0.00])
System changes: positions 

Initializing position-dependent things.

Density initialized from wave functions
           .--------------------------------------.  
          /|                                      |  
         / |                                      |  
        /  |                                      |  
       /   |                                      |  
      /    |                                      |  
     /     |                                      |  
    /      |                                      |  
   /       |                                      |  
  /        |                                      |  
 *         |           Na                         |  
 |         |                                      |  
 |         |                Na                    |  
 |         |                                      |  
 |         |            Na                        |  
 |         |                    Na                |  
 |         |                                      |  
 |         |                Na                    |  
 |         |                                      |  
 |         |             Na                       |  
 |         .--------------------------------------.  
 |        /                                      /   
 |       /                                      /    
 |      /                                      /     
 |     /                                      /      
 |    /                                      /       
 |   /                                      /        
 |  /                                      /         
 | /                                      /          
 |/                                      /           
 *--------------------------------------*            

Positions:
   0 Na    11.424955    5.046215    9.661160    ( 0.0000,  0.0000,  0.0000)
   1 Na     9.091214    7.135542   10.719357    ( 0.0000,  0.0000,  0.0000)
   2 Na     6.710298    9.263471   11.516303    ( 0.0000,  0.0000,  0.0000)
   3 Na     7.680133    8.011559    5.125248    ( 0.0000,  0.0000,  0.0000)
   4 Na     9.624253    6.463545    7.292195    ( 0.0000,  0.0000,  0.0000)
   5 Na     7.055205    8.690646    8.283979    ( 0.0000,  0.0000,  0.0000)

Unit cell:
           periodic     x           y           z      points  spacing
  1. axis:    no    16.000000    0.000000    0.000000    64     0.2500
  2. axis:    no     0.000000   16.000000    0.000000    64     0.2500
  3. axis:    no     0.000000    0.000000   16.000000    64     0.2500

  Lengths:  16.000000  16.000000  16.000000
  Angles:   90.000000  90.000000  90.000000

Effective grid spacing dv^(1/3) = 0.2500

                     log10-error:    total        iterations:
           time      wfs    density  energy       fermi  poisson
iter:   1  22:28:10  +0.57   +inf   -11.639107    27            
iter:   2  22:28:11  -0.26  +0.06   -11.053351    4             
iter:   3  22:28:13  -0.95  +0.04   -10.952863    3             
iter:   4  22:28:14  -1.50  +0.04    -9.005979    8             
iter:   5  22:28:16  -1.14  -0.03    -5.904154    23            
iter:   6  22:28:18  -2.14  -0.34    -5.976523    2             
iter:   7  22:28:19  -1.46  -0.33    -5.187604    9             
iter:   8  22:28:21  -1.77  -0.44    -5.439431    3             
iter:   9  22:28:22  -2.23  -0.49    -5.439896    4             
iter:  10  22:28:24  -2.30  -0.57    -5.285190    5             
iter:  11  22:28:25  -2.69  -0.82    -5.309846    4             
iter:  12  22:28:27  -3.11  -0.87    -5.298158    3             
iter:  13  22:28:29  -3.40  -1.01    -5.274286    3             
iter:  14  22:28:30  -3.47  -1.27    -5.267778    3             
iter:  15  22:28:32  -4.39  -1.46    -5.267971    2             
iter:  16  22:28:33  -4.80  -1.50    -5.268445    1             
iter:  17  22:28:35  -4.19  -1.60    -5.267835    2             
iter:  18  22:28:36  -4.95  -1.90    -5.267669    2             
iter:  19  22:28:38  -5.61  -2.09    -5.267674    2             
iter:  20  22:28:40  -5.85  -2.12    -5.267722    1             
iter:  21  22:28:41  -5.64  -2.27    -5.267788    2             
iter:  22  22:28:43  -5.76  -2.38    -5.267781    2             
iter:  23  22:28:44  -6.56  -2.74    -5.267782    1             
iter:  24  22:28:46  -7.06  -2.76    -5.267782    1             
iter:  25  22:28:47  -6.51  -2.81    -5.267781    1             
iter:  26  22:28:49  -7.38  -3.46    -5.267781    1             
iter:  27  22:28:51  -8.01  -3.49    -5.267781    1             
iter:  28  22:28:52  -8.12  -3.55    -5.267781    1             
iter:  29  22:28:54  -8.72  -3.72    -5.267781    1             
iter:  30  22:28:55  -9.08  -3.76    -5.267781    1             
iter:  31  22:28:57  -8.53  -3.81    -5.267781    1             
iter:  32  22:28:58  -9.41  -4.31    -5.267781    1             

Converged after 32 iterations.

Dipole moment: (0.017346, -0.008169, -0.011559) |e|*Ang

Energy contributions relative to reference atoms: (reference = -26392.251304)

Kinetic:        +11.793561
Potential:      -10.854827
External:        +0.000000
XC:              -6.205866
Entropy (-ST):   -0.000016
Local:           -0.000641
--------------------------
Free energy:     -5.267789
Extrapolated:    -5.267781

Fermi level: -2.37540

 Band  Eigenvalues  Occupancy
    0     -4.01729    2.00000
    1     -3.01340    1.99999
    2     -3.01089    1.99999
    3     -1.76691    0.00001
    4     -1.64144    0.00000
    5     -1.62149    0.00000
    6     -1.41916    0.00000
    7     -0.66285    0.00000
    8     -0.63788    0.00000
    9     -0.60058    0.00000

Gap: 1.244 eV
Transition (v -> c):
  (s=0, k=0, n=2, [0.00, 0.00, 0.00]) -> (s=0, k=0, n=3, [0.00, 0.00, 0.00])

Forces in eV/Ang:
  0 Na   -0.00050    0.00067    0.00276
  1 Na    0.00091   -0.00226   -0.02098
  2 Na   -0.00486    0.00347    0.00058
  3 Na   -0.00135   -0.00069   -0.00365
  4 Na   -0.01163    0.00987    0.01430
  5 Na    0.01758   -0.01111    0.00700

System changes: positions 

Initializing position-dependent things.

Density initialized from wave functions
           .--------------------------------------.  
          /|                                      |  
         / |                                      |  
        /  |                                      |  
       /   |                                      |  
      /    |                                      |  
     /     |                                      |  
    /      |                                      |  
   /       |                                      |  
  /        |                                      |  
 *         |           Na                         |  
 |         |                                      |  
 |         |                Na                    |  
 |         |                                      |  
 |         |            Na                        |  
 |         |                    Na                |  
 |         |                                      |  
 |         |                Na                    |  
 |         |                                      |  
 |         |             Na                       |  
 |         .--------------------------------------.  
 |        /                                      /   
 |       /                                      /    
 |      /                                      /     
 |     /                                      /      
 |    /                                      /       
 |   /                                      /        
 |  /                                      /         
 | /                                      /          
 |/                                      /           
 *--------------------------------------*            

Positions:
   0 Na    11.419705    5.053341    9.690371    ( 0.0000,  0.0000,  0.0000)
   1 Na     9.100868    7.111589   10.496998    ( 0.0000,  0.0000,  0.0000)
   2 Na     6.658750    9.300229   11.522468    ( 0.0000,  0.0000,  0.0000)
   3 Na     7.665776    8.004261    5.086577    ( 0.0000,  0.0000,  0.0000)
   4 Na     9.501008    6.568109    7.443725    ( 0.0000,  0.0000,  0.0000)
   5 Na     7.241533    8.572843    8.358132    ( 0.0000,  0.0000,  0.0000)

Unit cell:
           periodic     x           y           z      points  spacing
  1. axis:    no    16.000000    0.000000    0.000000    64     0.2500
  2. axis:    no     0.000000   16.000000    0.000000    64     0.2500
  3. axis:    no     0.000000    0.000000   16.000000    64     0.2500

  Lengths:  16.000000  16.000000  16.000000
  Angles:   90.000000  90.000000  90.000000

Effective grid spacing dv^(1/3) = 0.2500

                     log10-error:    total        iterations:
           time      wfs    density  energy       fermi  poisson
iter:   1  22:29:02  -0.99   +inf    -5.248502    3             
iter:   2  22:29:04  -2.25  -0.85    -5.229613    2             
iter:   3  22:29:05  -2.52  -0.91    -5.177819    4             
iter:   4  22:29:07  -3.56  -1.44    -5.177876    2             
iter:   5  22:29:08  -4.06  -1.48    -5.178790    2             
iter:   6  22:29:10  -4.03  -1.64    -5.178873    2             
iter:   7  22:29:12  -4.66  -1.95    -5.178833    2             
iter:   8  22:29:13  -5.00  -2.22    -5.178867    2             
iter:   9  22:29:15  -5.45  -2.48    -5.178859    2             
iter:  10  22:29:16  -5.74  -2.61    -5.178855    1             
iter:  11  22:29:18  -6.29  -3.16    -5.178855    1             
iter:  12  22:29:19  -6.66  -3.17    -5.178855    1             
iter:  13  22:29:21  -7.08  -3.32    -5.178855    1             
iter:  14  22:29:23  -7.46  -3.67    -5.178855    1             
iter:  15  22:29:24  -7.84  -3.81    -5.178854    1             
iter:  16  22:29:26  -8.35  -4.36    -5.178854    1             

Converged after 16 iterations.

Dipole moment: (0.039593, -0.029970, -0.019918) |e|*Ang

Energy contributions relative to reference atoms: (reference = -26392.251304)

Kinetic:        +14.750720
Potential:      -13.086629
External:        +0.000000
XC:              -6.841400
Entropy (-ST):   -0.000045
Local:           -0.001523
--------------------------
Free energy:     -5.178877
Extrapolated:    -5.178854

Fermi level: -2.40293

 Band  Eigenvalues  Occupancy
    0     -4.12307    2.00000
    1     -3.00937    1.99999
    2     -2.96484    1.99997
    3     -1.85805    0.00004
    4     -1.53918    0.00000
    5     -1.52033    0.00000
    6     -1.47391    0.00000
    7     -0.66125    0.00000
    8     -0.65538    0.00000
    9     -0.58632    0.00000

Gap: 1.107 eV
Transition (v -> c):
  (s=0, k=0, n=2, [0.00, 0.00, 0.00]) -> (s=0, k=0, n=3, [0.00, 0.00, 0.00])

Forces in eV/Ang:
  0 Na    0.03773   -0.03420   -0.01903
  1 Na   -0.02159    0.04112    0.33452
  2 Na    0.04779   -0.04308   -0.02693
  3 Na    0.00787   -0.00526    0.03639
  4 Na    0.14749   -0.14377   -0.25480
  5 Na   -0.21934    0.18521   -0.07009

System changes: positions 

Initializing position-dependent things.

Density initialized from wave functions
           .--------------------------------------.  
          /|                                      |  
         / |                                      |  
        /  |                                      |  
       /   |                                      |  
      /    |                                      |  
     /     |                                      |  
    /      |                                      |  
   /       |                                      |  
  /        |                                      |  
 *         |           Na                         |  
 |         |                                      |  
 |         |                Na                    |  
 |         |                                      |  
 |         |            Na                        |  
 |         |                    Na                |  
 |         |                                      |  
 |         |                Na                    |  
 |         |                                      |  
 |         |             Na                       |  
 |         .--------------------------------------.  
 |        /                                      /   
 |       /                                      /    
 |      /                                      /     
 |     /                                      /      
 |    /                                      /       
 |   /                                      /        
 |  /                                      /         
 | /                                      /          
 |/                                      /           
 *--------------------------------------*            

Positions:
   0 Na    11.433127    5.040167    9.672298    ( 0.0000,  0.0000,  0.0000)
   1 Na     9.090357    7.133975   10.690812    ( 0.0000,  0.0000,  0.0000)
   2 Na     6.694856    9.271813   11.511859    ( 0.0000,  0.0000,  0.0000)
   3 Na     7.674219    8.005806    5.113823    ( 0.0000,  0.0000,  0.0000)
   4 Na     9.597186    6.480983    7.303691    ( 0.0000,  0.0000,  0.0000)
   5 Na     7.097206    8.677891    8.305793    ( 0.0000,  0.0000,  0.0000)

Unit cell:
           periodic     x           y           z      points  spacing
  1. axis:    no    16.000000    0.000000    0.000000    64     0.2500
  2. axis:    no     0.000000   16.000000    0.000000    64     0.2500
  3. axis:    no     0.000000    0.000000   16.000000    64     0.2500

  Lengths:  16.000000  16.000000  16.000000
  Angles:   90.000000  90.000000  90.000000

Effective grid spacing dv^(1/3) = 0.2500

                     log10-error:    total        iterations:
           time      wfs    density  energy       fermi  poisson
iter:   1  22:29:29  -1.00   +inf    -5.355326    4             
iter:   2  22:29:31  -2.24  -0.83    -5.332123    2             
iter:   3  22:29:32  -2.51  -0.89    -5.267866    4             
iter:   4  22:29:34  -3.64  -1.43    -5.267335    2             
iter:   5  22:29:36  -4.10  -1.50    -5.267555    2             
iter:   6  22:29:37  -3.98  -1.63    -5.267985    2             
iter:   7  22:29:39  -4.31  -1.80    -5.267926    2             
iter:   8  22:29:40  -5.00  -2.36    -5.267929    2             
iter:   9  22:29:42  -5.48  -2.50    -5.267918    1             
iter:  10  22:29:43  -5.67  -2.63    -5.267915    1             
iter:  11  22:29:45  -6.21  -3.06    -5.267913    1             
iter:  12  22:29:47  -6.65  -3.14    -5.267913    1             
iter:  13  22:29:48  -6.93  -3.17    -5.267913    1             
iter:  14  22:29:50  -7.26  -3.48    -5.267913    1             
iter:  15  22:29:51  -7.79  -3.76    -5.267913    1             
iter:  16  22:29:53  -8.07  -3.79    -5.267913    1             
iter:  17  22:29:54  -8.39  -3.95    -5.267913    1             
iter:  18  22:29:56  -8.92  -3.97    -5.267913    1             
iter:  19  22:29:58  -9.19  -4.05    -5.267913    1             

Converged after 19 iterations.

Dipole moment: (0.015255, -0.007649, -0.012219) |e|*Ang

Energy contributions relative to reference atoms: (reference = -26392.251304)

Kinetic:        +12.023197
Potential:      -11.024338
External:        +0.000000
XC:              -6.265584
Entropy (-ST):   -0.000019
Local:           -0.001178
--------------------------
Free energy:     -5.267922
Extrapolated:    -5.267913

Fermi level: -2.37986

 Band  Eigenvalues  Occupancy
    0     -4.03007    2.00000
    1     -3.00938    1.99999
    2     -3.00486    1.99999
    3     -1.78388    0.00001
    4     -1.62531    0.00000
    5     -1.60536    0.00000
    6     -1.42490    0.00000
    7     -0.66446    0.00000
    8     -0.64307    0.00000
    9     -0.61519    0.00000

Gap: 1.221 eV
Transition (v -> c):
  (s=0, k=0, n=2, [0.00, 0.00, 0.00]) -> (s=0, k=0, n=3, [0.00, 0.00, 0.00])

Forces in eV/Ang:
  0 Na   -0.00950    0.00760   -0.00751
  1 Na    0.00370   -0.00213    0.01264
  2 Na    0.00304   -0.00260    0.00391
  3 Na   -0.00392    0.00257    0.00572
  4 Na    0.01647   -0.01441    0.00367
  5 Na   -0.00965    0.00886   -0.01842

System changes: positions 

Initializing position-dependent things.

Density initialized from wave functions
           .--------------------------------------.  
          /|                                      |  
         / |                                      |  
        /  |                                      |  
       /   |                                      |  
      /    |                                      |  
     /     |                                      |  
    /      |                                      |  
   /       |                                      |  
  /        |                                      |  
 *         |           Na                         |  
 |         |                                      |  
 |         |                Na                    |  
 |         |                                      |  
 |         |            Na                        |  
 |         |                    Na                |  
 |         |                                      |  
 |         |                Na                    |  
 |         |                                      |  
 |         |             Na                       |  
 |         .--------------------------------------.  
 |        /                                      /   
 |       /                                      /    
 |      /                                      /     
 |     /                                      /      
 |    /                                      /       
 |   /                                      /        
 |  /                                      /         
 | /                                      /          
 |/                                      /           
 *--------------------------------------*            

Positions:
   0 Na    11.412658    5.056361    9.656244    ( 0.0000,  0.0000,  0.0000)
   1 Na     9.095308    7.129796   10.682077    ( 0.0000,  0.0000,  0.0000)
   2 Na     6.714200    9.264537   11.524277    ( 0.0000,  0.0000,  0.0000)
   3 Na     7.684085    8.016930    5.127537    ( 0.0000,  0.0000,  0.0000)
   4 Na     9.618464    6.476373    7.327456    ( 0.0000,  0.0000,  0.0000)
   5 Na     7.060599    8.667265    8.280613    ( 0.0000,  0.0000,  0.0000)

Unit cell:
           periodic     x           y           z      points  spacing
  1. axis:    no    16.000000    0.000000    0.000000    64     0.2500
  2. axis:    no     0.000000   16.000000    0.000000    64     0.2500
  3. axis:    no     0.000000    0.000000   16.000000    64     0.2500

  Lengths:  16.000000  16.000000  16.000000
  Angles:   90.000000  90.000000  90.000000

Effective grid spacing dv^(1/3) = 0.2500

                     log10-error:    total        iterations:
           time      wfs    density  energy       fermi  poisson
iter:   1  22:30:01  -2.46   +inf    -5.271228    2             
iter:   2  22:30:03  -3.73  -1.56    -5.270146    1             
iter:   3  22:30:04  -4.17  -1.63    -5.267406    2             
iter:   4  22:30:06  -5.12  -2.08    -5.267383    1             
iter:   5  22:30:07  -5.20  -2.17    -5.267324    2             
iter:   6  22:30:09  -5.67  -2.46    -5.267320    1             
iter:   7  22:30:11  -5.87  -2.55    -5.267334    2             
iter:   8  22:30:12  -6.42  -2.92    -5.267336    1             
iter:   9  22:30:14  -6.66  -3.07    -5.267335    1             
iter:  10  22:30:15  -7.29  -3.45    -5.267335    1             
iter:  11  22:30:17  -7.77  -3.68    -5.267335    1             
iter:  12  22:30:18  -8.18  -3.73    -5.267335    1             
iter:  13  22:30:20  -8.53  -3.78    -5.267335    1             
iter:  14  22:30:22  -9.01  -3.89    -5.267335    1             
iter:  15  22:30:23  -8.53  -3.91    -5.267335    1             
iter:  16  22:30:25  -9.35  -4.53    -5.267335    1             

Converged after 16 iterations.

Dipole moment: (0.027637, -0.015912, -0.013391) |e|*Ang

Energy contributions relative to reference atoms: (reference = -26392.251304)

Kinetic:        +12.277685
Potential:      -11.229366
External:        +0.000000
XC:              -6.314622
Entropy (-ST):   -0.000017
Local:           -0.001023
--------------------------
Free energy:     -5.267343
Extrapolated:    -5.267335

Fermi level: -2.37745

 Band  Eigenvalues  Occupancy
    0     -4.03367    2.00000
    1     -3.01945    1.99999
    2     -3.00133    1.99999
    3     -1.77581    0.00001
    4     -1.62437    0.00000
    5     -1.61184    0.00000
    6     -1.42727    0.00000
    7     -0.66967    0.00000
    8     -0.64012    0.00000
    9     -0.61389    0.00000

Gap: 1.226 eV
Transition (v -> c):
  (s=0, k=0, n=2, [0.00, 0.00, 0.00]) -> (s=0, k=0, n=3, [0.00, 0.00, 0.00])

Forces in eV/Ang:
  0 Na    0.02391   -0.01994    0.00962
  1 Na   -0.01791    0.01682    0.02068
  2 Na    0.00303   -0.00507   -0.01026
  3 Na    0.00386   -0.00561   -0.00540
  4 Na   -0.01195    0.00750   -0.03241
  5 Na   -0.00084    0.00631    0.01777

System changes: positions 

Initializing position-dependent things.

Density initialized from wave functions
           .--------------------------------------.  
          /|                                      |  
         / |                                      |  
        /  |                                      |  
       /   |                                      |  
      /    |                                      |  
     /     |                                      |  
    /      |                                      |  
   /       |                                      |  
  /        |                                      |  
 *         |           Na                         |  
 |         |                                      |  
 |         |                Na                    |  
 |         |                                      |  
 |         |            Na                        |  
 |         |                    Na                |  
 |         |                                      |  
 |         |                Na                    |  
 |         |                                      |  
 |         |             Na                       |  
 |         .--------------------------------------.  
 |        /                                      /   
 |       /                                      /    
 |      /                                      /     
 |     /                                      /      
 |    /                                      /       
 |   /                                      /        
 |  /                                      /         
 | /                                      /          
 |/                                      /           
 *--------------------------------------*            

Positions:
   0 Na    11.425581    5.049176    9.689331    ( 0.0000,  0.0000,  0.0000)
   1 Na     9.135232    7.097246   10.757383    ( 0.0000,  0.0000,  0.0000)
   2 Na     6.608389    9.308548   11.495327    ( 0.0000,  0.0000,  0.0000)
   3 Na     7.600698    7.978574    5.090344    ( 0.0000,  0.0000,  0.0000)
   4 Na     9.612334    6.407268    7.271893    ( 0.0000,  0.0000,  0.0000)
   5 Na     7.212820    8.766417    8.294391    ( 0.0000,  0.0000,  0.0000)

Unit cell:
           periodic     x           y           z      points  spacing
  1. axis:    no    16.000000    0.000000    0.000000    64     0.2500
  2. axis:    no     0.000000   16.000000    0.000000    64     0.2500
  3. axis:    no     0.000000    0.000000   16.000000    64     0.2500

  Lengths:  16.000000  16.000000  16.000000
  Angles:   90.000000  90.000000  90.000000

Effective grid spacing dv^(1/3) = 0.2500

                     log10-error:    total        iterations:
           time      wfs    density  energy       fermi  poisson
iter:   1  22:30:28  -1.34   +inf    -5.275551    3             
iter:   2  22:30:30  -2.53  -1.15    -5.271829    2             
iter:   3  22:30:32  -2.86  -1.20    -5.259454    3             
iter:   4  22:30:33  -4.05  -1.68    -5.258921    2             
iter:   5  22:30:35  -4.58  -1.76    -5.259134    2             
iter:   6  22:30:36  -4.58  -1.88    -5.259366    1             
iter:   7  22:30:38  -5.05  -2.16    -5.259430    2             
iter:   8  22:30:39  -5.62  -2.57    -5.259441    1             
iter:   9  22:30:41  -5.88  -2.63    -5.259447    2             
iter:  10  22:30:43  -6.25  -2.95    -5.259447    1             
iter:  11  22:30:44  -6.75  -3.23    -5.259447    1             
iter:  12  22:30:46  -6.99  -3.27    -5.259447    1             
iter:  13  22:30:47  -7.43  -3.64    -5.259447    1             
iter:  14  22:30:49  -7.85  -3.82    -5.259447    1             
iter:  15  22:30:50  -8.21  -4.01    -5.259447    1             

Converged after 15 iterations.

Dipole moment: (0.024401, -0.030266, -0.016430) |e|*Ang

Energy contributions relative to reference atoms: (reference = -26392.251304)

Kinetic:        +10.950114
Potential:      -10.180536
External:        +0.000000
XC:              -6.027847
Entropy (-ST):   -0.000019
Local:           -0.001168
--------------------------
Free energy:     -5.259457
Extrapolated:    -5.259447

Fermi level: -2.37569

 Band  Eigenvalues  Occupancy
    0     -3.99909    2.00000
    1     -3.02021    1.99999
    2     -2.98852    1.99999
    3     -1.77813    0.00001
    4     -1.65767    0.00000
    5     -1.61369    0.00000
    6     -1.40647    0.00000
    7     -0.67582    0.00000
    8     -0.65070    0.00000
    9     -0.61663    0.00000

Gap: 1.210 eV
Transition (v -> c):
  (s=0, k=0, n=2, [0.00, 0.00, 0.00]) -> (s=0, k=0, n=3, [0.00, 0.00, 0.00])

Forces in eV/Ang:
  0 Na    0.01645   -0.01635   -0.00993
  1 Na   -0.07168    0.06172   -0.01299
  2 Na    0.05452   -0.04209   -0.02123
  3 Na    0.02530   -0.01446    0.03705
  4 Na   -0.02888    0.02740    0.00433
  5 Na    0.00442   -0.01590    0.00286

System changes: positions 

Initializing position-dependent things.

Density initialized from wave functions
           .--------------------------------------.  
          /|                                      |  
         / |                                      |  
        /  |                                      |  
       /   |                                      |  
      /    |                                      |  
     /     |                                      |  
    /      |                                      |  
   /       |                                      |  
  /        |                                      |  
 *         |           Na                         |  
 |         |                                      |  
 |         |                Na                    |  
 |         |                                      |  
 |         |            Na                        |  
 |         |                    Na                |  
 |         |                                      |  
 |         |                Na                    |  
 |         |                                      |  
 |         |             Na                       |  
 |         .--------------------------------------.  
 |        /                                      /   
 |       /                                      /    
 |      /                                      /     
 |     /                                      /      
 |    /                                      /       
 |   /                                      /        
 |  /                                      /         
 | /                                      /          
 |/                                      /           
 *--------------------------------------*            

Positions:
   0 Na    11.423089    5.048063    9.665745    ( 0.0000,  0.0000,  0.0000)
   1 Na     9.076712    7.147102   10.721929    ( 0.0000,  0.0000,  0.0000)
   2 Na     6.682098    9.264326   11.494796    ( 0.0000,  0.0000,  0.0000)
   3 Na     7.642445    7.983927    5.131732    ( 0.0000,  0.0000,  0.0000)
   4 Na     9.603295    6.442182    7.305702    ( 0.0000,  0.0000,  0.0000)
   5 Na     7.164331    8.723111    8.278670    ( 0.0000,  0.0000,  0.0000)

Unit cell:
           periodic     x           y           z      points  spacing
  1. axis:    no    16.000000    0.000000    0.000000    64     0.2500
  2. axis:    no     0.000000   16.000000    0.000000    64     0.2500
  3. axis:    no     0.000000    0.000000   16.000000    64     0.2500

  Lengths:  16.000000  16.000000  16.000000
  Angles:   90.000000  90.000000  90.000000

Effective grid spacing dv^(1/3) = 0.2500

                     log10-error:    total        iterations:
           time      wfs    density  energy       fermi  poisson
iter:   1  22:30:54  -1.69   +inf    -5.287486    3             
iter:   2  22:30:56  -2.86  -1.20    -5.282346    2             
iter:   3  22:30:57  -3.04  -1.26    -5.267974    3             
iter:   4  22:30:59  -4.18  -1.75    -5.267977    2             
iter:   5  22:31:00  -4.64  -1.81    -5.267828    2             
iter:   6  22:31:02  -4.53  -1.99    -5.267754    1             
iter:   7  22:31:04  -5.14  -2.21    -5.267742    2             
iter:   8  22:31:05  -5.58  -2.55    -5.267758    1             
iter:   9  22:31:07  -5.95  -2.69    -5.267761    1             
iter:  10  22:31:08  -6.21  -2.88    -5.267759    1             
iter:  11  22:31:10  -6.76  -3.33    -5.267759    1             
iter:  12  22:31:11  -7.18  -3.36    -5.267759    1             
iter:  13  22:31:13  -7.46  -3.43    -5.267759    1             
iter:  14  22:31:15  -7.89  -3.58    -5.267759    1             
iter:  15  22:31:16  -8.28  -3.64    -5.267759    1             
iter:  16  22:31:18  -8.05  -3.66    -5.267759    1             
iter:  17  22:31:19  -8.65  -4.30    -5.267759    1             

Converged after 17 iterations.

Dipole moment: (0.009520, -0.010289, -0.013374) |e|*Ang

Energy contributions relative to reference atoms: (reference = -26392.251304)

Kinetic:        +12.128711
Potential:      -11.112915
External:        +0.000000
XC:              -6.282647
Entropy (-ST):   -0.000017
Local:           -0.000900
--------------------------
Free energy:     -5.267767
Extrapolated:    -5.267759

Fermi level: -2.37749

 Band  Eigenvalues  Occupancy
    0     -4.02957    2.00000
    1     -3.01304    1.99999
    2     -3.00715    1.99999
    3     -1.77520    0.00001
    4     -1.62828    0.00000
    5     -1.61253    0.00000
    6     -1.42490    0.00000
    7     -0.66551    0.00000
    8     -0.63796    0.00000
    9     -0.61904    0.00000

Gap: 1.232 eV
Transition (v -> c):
  (s=0, k=0, n=2, [0.00, 0.00, 0.00]) -> (s=0, k=0, n=3, [0.00, 0.00, 0.00])

Forces in eV/Ang:
  0 Na   -0.00424    0.00308    0.00680
  1 Na    0.01560   -0.01373   -0.00801
  2 Na   -0.00311    0.00579    0.00417
  3 Na    0.00576   -0.00473   -0.01222
  4 Na   -0.00038    0.00086    0.00023
  5 Na   -0.01374    0.00870    0.00897

System changes: positions 

Initializing position-dependent things.

Density initialized from wave functions
           .--------------------------------------.  
          /|                                      |  
         / |                                      |  
        /  |                                      |  
       /   |                                      |  
      /    |                                      |  
     /     |                                      |  
    /      |                                      |  
   /       |                                      |  
  /        |                                      |  
 *         |           Na                         |  
 |         |                                      |  
 |         |                Na                    |  
 |         |                                      |  
 |         |            Na                        |  
 |         |                    Na                |  
 |         |                                      |  
 |         |                Na                    |  
 |         |                                      |  
 |         |             Na                       |  
 |         .--------------------------------------.  
 |        /                                      /   
 |       /                                      /    
 |      /                                      /     
 |     /                                      /      
 |    /                                      /       
 |   /                                      /        
 |  /                                      /         
 | /                                      /          
 |/                                      /           
 *--------------------------------------*            

Positions:
   0 Na    11.424284    5.046686    9.667397    ( 0.0000,  0.0000,  0.0000)
   1 Na     9.089441    7.135919   10.704623    ( 0.0000,  0.0000,  0.0000)
   2 Na     6.698831    9.266177   11.510688    ( 0.0000,  0.0000,  0.0000)
   3 Na     7.669453    7.999286    5.120012    ( 0.0000,  0.0000,  0.0000)
   4 Na     9.608571    6.464100    7.305610    ( 0.0000,  0.0000,  0.0000)
   5 Na     7.097532    8.697992    8.290001    ( 0.0000,  0.0000,  0.0000)

Unit cell:
           periodic     x           y           z      points  spacing
  1. axis:    no    16.000000    0.000000    0.000000    64     0.2500
  2. axis:    no     0.000000   16.000000    0.000000    64     0.2500
  3. axis:    no     0.000000    0.000000   16.000000    64     0.2500

  Lengths:  16.000000  16.000000  16.000000
  Angles:   90.000000  90.000000  90.000000

Effective grid spacing dv^(1/3) = 0.2500

                     log10-error:    total        iterations:
           time      wfs    density  energy       fermi  poisson
iter:   1  22:31:23  -2.41   +inf    -5.269013    2             
iter:   2  22:31:25  -3.66  -1.82    -5.268933    1             
iter:   3  22:31:26  -4.37  -1.86    -5.268492    2             
iter:   4  22:31:28  -5.28  -2.22    -5.268494    1             
iter:   5  22:31:29  -5.65  -2.27    -5.268520    1             
iter:   6  22:31:31  -6.05  -2.52    -5.268537    1             
iter:   7  22:31:32  -6.21  -2.64    -5.268555    1             
iter:   8  22:31:34  -6.94  -3.05    -5.268556    1             
iter:   9  22:31:36  -7.02  -3.17    -5.268556    1             
iter:  10  22:31:37  -7.83  -3.61    -5.268556    1             
iter:  11  22:31:39  -8.45  -3.80    -5.268556    1             
iter:  12  22:31:40  -8.68  -3.86    -5.268556    1             
iter:  13  22:31:42  -9.29  -4.02    -5.268556    1             

Converged after 13 iterations.

Dipole moment: (0.016794, -0.010471, -0.011883) |e|*Ang

Energy contributions relative to reference atoms: (reference = -26392.251304)

Kinetic:        +11.997244
Potential:      -11.009581
External:        +0.000000
XC:              -6.255199
Entropy (-ST):   -0.000017
Local:           -0.001011
--------------------------
Free energy:     -5.268565
Extrapolated:    -5.268556

Fermi level: -2.37767

 Band  Eigenvalues  Occupancy
    0     -4.02621    2.00000
    1     -3.01112    1.99999
    2     -3.00851    1.99999
    3     -1.77569    0.00001
    4     -1.63079    0.00000
    5     -1.61288    0.00000
    6     -1.42346    0.00000
    7     -0.66685    0.00000
    8     -0.63998    0.00000
    9     -0.61643    0.00000

Gap: 1.233 eV
Transition (v -> c):
  (s=0, k=0, n=2, [0.00, 0.00, 0.00]) -> (s=0, k=0, n=3, [0.00, 0.00, 0.00])

Forces in eV/Ang:
  0 Na    0.00057   -0.00084    0.00103
  1 Na    0.00019   -0.00003   -0.00066
  2 Na   -0.00018    0.00058    0.00195
  3 Na    0.00052   -0.00105    0.00091
  4 Na   -0.00147    0.00096   -0.00013
  5 Na    0.00030   -0.00000   -0.00294

System changes: positions 

Initializing position-dependent things.

Density initialized from wave functions
           .--------------------------------------.  
          /|                                      |  
         / |                                      |  
        /  |                                      |  
       /   |                                      |  
      /    |                                      |  
     /     |                                      |  
    /      |                                      |  
   /       |                                      |  
  /        |                                      |  
 *         |                                      |  
 |         |          Na                          |  
 |         |                                      |  
 |         |       Na      Na                     |  
 |         |                Na                    |  
 |         |                                      |  
 |         |                                      |  
 |         |             Na   Na                  |  
 |         |                                      |  
 |         |                                      |  
 |         .--------------------------------------.  
 |        /                                      /   
 |       /                                      /    
 |      /                                      /     
 |     /                                      /      
 |    /                                      /       
 |   /                                      /        
 |  /                                      /         
 | /                                      /          
 |/                                      /           
 *--------------------------------------*            

Positions:
   0 Na     8.210231    9.489933    8.656516    ( 0.0000,  0.0000,  0.0000)
   1 Na     6.417931    8.101846   10.968460    ( 0.0000,  0.0000,  0.0000)
   2 Na     5.009862    9.947279    8.321395    ( 0.0000,  0.0000,  0.0000)
   3 Na     7.211492    9.790525    5.577356    ( 0.0000,  0.0000,  0.0000)
   4 Na     9.992557    7.848605    6.505352    ( 0.0000,  0.0000,  0.0000)
   5 Na     9.477264    6.754058    9.822530    ( 0.0000,  0.0000,  0.0000)

Unit cell:
           periodic     x           y           z      points  spacing
  1. axis:    no    16.000000    0.000000    0.000000    64     0.2500
  2. axis:    no     0.000000   16.000000    0.000000    64     0.2500
  3. axis:    no     0.000000    0.000000   16.000000    64     0.2500

  Lengths:  16.000000  16.000000  16.000000
  Angles:   90.000000  90.000000  90.000000

Effective grid spacing dv^(1/3) = 0.2500

                     log10-error:    total        iterations:
           time      wfs    density  energy       fermi  poisson
iter:   1  22:31:46  +0.39   +inf    -7.896485    23            
iter:   2  22:31:47  -0.46  -0.07    -7.762311    2             
iter:   3  22:31:49  -1.14  -0.09    -6.383921    7             
iter:   4  22:31:50  -1.29  -0.24    -5.590029    27            
iter:   5  22:31:52  -2.15  -0.48    -5.457361    2             
iter:   6  22:31:54  -2.30  -0.56    -5.329509    4             
iter:   7  22:31:55  -2.54  -0.86    -5.345844    4             
iter:   8  22:31:57  -2.89  -0.97    -5.324413    3             
iter:   9  22:31:58  -3.56  -1.34    -5.324882    2             
iter:  10  22:32:00  -3.88  -1.43    -5.325492    3             
iter:  11  22:32:01  -4.24  -1.71    -5.325434    2             
iter:  12  22:32:03  -4.87  -1.93    -5.325365    2             
iter:  13  22:32:05  -5.34  -1.97    -5.325312    1             
iter:  14  22:32:06  -5.67  -2.03    -5.325405    2             
iter:  15  22:32:08  -6.09  -2.11    -5.325417    1             
iter:  16  22:32:09  -5.70  -2.16    -5.325422    1             
iter:  17  22:32:11  -6.37  -2.31    -5.325432    2             
iter:  18  22:32:13  -5.83  -2.36    -5.325478    1             
iter:  19  22:32:14  -6.83  -2.69    -5.325476    1             
iter:  20  22:32:16  -6.18  -2.72    -5.325479    1             
iter:  21  22:32:17  -7.16  -3.10    -5.325476    1             
iter:  22  22:32:19  -7.54  -3.28    -5.325476    1             
iter:  23  22:32:20  -8.07  -3.44    -5.325476    1             
iter:  24  22:32:22  -8.41  -3.50    -5.325475    1             
iter:  25  22:32:24  -8.48  -3.55    -5.325475    1             
iter:  26  22:32:25  -8.42  -3.66    -5.325475    1             
iter:  27  22:32:27  -9.27  -4.12    -5.325475    1             

Converged after 27 iterations.

Dipole moment: (-0.066096, -0.105436, -0.045053) |e|*Ang

Energy contributions relative to reference atoms: (reference = -26392.251304)

Kinetic:        +11.974921
Potential:      -10.841908
External:        +0.000000
XC:              -6.456815
Entropy (-ST):   -0.000035
Local:           -0.001655
--------------------------
Free energy:     -5.325493
Extrapolated:    -5.325475

Fermi level: -2.34703

 Band  Eigenvalues  Occupancy
    0     -4.11786    2.00000
    1     -2.94474    1.99999
    2     -2.93674    1.99998
    3     -1.78394    0.00003
    4     -1.63173    0.00000
    5     -1.62301    0.00000
    6     -1.33658    0.00000
    7     -0.74465    0.00000
    8     -0.73327    0.00000
    9     -0.35040    0.00000

Gap: 1.153 eV
Transition (v -> c):
  (s=0, k=0, n=2, [0.00, 0.00, 0.00]) -> (s=0, k=0, n=3, [0.00, 0.00, 0.00])

Forces in eV/Ang:
  0 Na    0.00987    0.03358    0.00492
  1 Na   -0.00023   -0.00951   -0.00789
  2 Na    0.00545   -0.00647   -0.00297
  3 Na   -0.00318   -0.00508    0.00690
  4 Na   -0.00670   -0.00899    0.00209
  5 Na   -0.00534   -0.00320   -0.00296

System changes: positions 

Initializing position-dependent things.

Density initialized from wave functions
           .--------------------------------------.  
          /|                                      |  
         / |                                      |  
        /  |                                      |  
       /   |                                      |  
      /    |                                      |  
     /     |                                      |  
    /      |                                      |  
   /       |                                      |  
  /        |                                      |  
 *         |                                      |  
 |         |          Na                          |  
 |         |                                      |  
 |         |        Na     Na                     |  
 |         |                Na                    |  
 |         |                                      |  
 |         |                                      |  
 |         |             Na   Na                  |  
 |         |                                      |  
 |         |                                      |  
 |         .--------------------------------------.  
 |        /                                      /   
 |       /                                      /    
 |      /                                      /     
 |     /                                      /      
 |    /                                      /       
 |   /                                      /        
 |  /                                      /         
 | /                                      /          
 |/                                      /           
 *--------------------------------------*            

Positions:
   0 Na     8.304807    9.811640    8.703634    ( 0.0000,  0.0000,  0.0000)
   1 Na     6.415688    8.010733   10.892875    ( 0.0000,  0.0000,  0.0000)
   2 Na     5.062115    9.885307    8.292913    ( 0.0000,  0.0000,  0.0000)
   3 Na     7.181027    9.741852    5.643426    ( 0.0000,  0.0000,  0.0000)
   4 Na     9.928375    7.762499    6.525336    ( 0.0000,  0.0000,  0.0000)
   5 Na     9.426108    6.723363    9.794136    ( 0.0000,  0.0000,  0.0000)

Unit cell:
           periodic     x           y           z      points  spacing
  1. axis:    no    16.000000    0.000000    0.000000    64     0.2500
  2. axis:    no     0.000000   16.000000    0.000000    64     0.2500
  3. axis:    no     0.000000    0.000000   16.000000    64     0.2500

  Lengths:  16.000000  16.000000  16.000000
  Angles:   90.000000  90.000000  90.000000

Effective grid spacing dv^(1/3) = 0.2500

                     log10-error:    total        iterations:
           time      wfs    density  energy       fermi  poisson
iter:   1  22:32:30  -0.93   +inf    -5.386215    3             
iter:   2  22:32:32  -2.16  -0.84    -5.364531    2             
iter:   3  22:32:34  -2.65  -0.91    -5.310069    3             
iter:   4  22:32:35  -3.76  -1.33    -5.309727    2             
iter:   5  22:32:37  -4.06  -1.40    -5.309292    2             
iter:   6  22:32:38  -4.38  -1.58    -5.309272    2             
iter:   7  22:32:40  -4.44  -1.69    -5.309888    2             
iter:   8  22:32:41  -5.06  -2.23    -5.309975    2             
iter:   9  22:32:43  -5.20  -2.31    -5.309966    2             
iter:  10  22:32:45  -5.95  -2.75    -5.309964    2             
iter:  11  22:32:46  -6.40  -2.84    -5.309964    1             
iter:  12  22:32:48  -6.61  -2.89    -5.309966    1             
iter:  13  22:32:49  -6.62  -3.10    -5.309965    2             
iter:  14  22:32:51  -7.25  -3.34    -5.309965    1             
iter:  15  22:32:52  -7.67  -3.67    -5.309965    1             
iter:  16  22:32:54  -8.02  -3.77    -5.309965    1             
iter:  17  22:32:56  -8.18  -3.86    -5.309965    1             
iter:  18  22:32:57  -8.56  -3.89    -5.309965    1             
iter:  19  22:32:59  -9.01  -4.38    -5.309965    1             

Converged after 19 iterations.

Dipole moment: (-0.060818, -0.053913, -0.049258) |e|*Ang

Energy contributions relative to reference atoms: (reference = -26392.251304)

Kinetic:        +10.869190
Potential:       -9.942595
External:        +0.000000
XC:              -6.235093
Entropy (-ST):   -0.000131
Local:           -0.001402
--------------------------
Free energy:     -5.310030
Extrapolated:    -5.309965

Fermi level: -2.40196

 Band  Eigenvalues  Occupancy
    0     -4.12512    2.00000
    1     -2.93639    1.99995
    2     -2.91320    1.99993
    3     -1.91493    0.00012
    4     -1.59821    0.00000
    5     -1.59739    0.00000
    6     -1.30739    0.00000
    7     -0.81166    0.00000
    8     -0.78805    0.00000
    9     -0.31626    0.00000

Gap: 0.998 eV
Transition (v -> c):
  (s=0, k=0, n=2, [0.00, 0.00, 0.00]) -> (s=0, k=0, n=3, [0.00, 0.00, 0.00])

Forces in eV/Ang:
  0 Na    0.01135   -0.14180    0.01892
  1 Na    0.03310    0.03123   -0.03224
  2 Na   -0.02151    0.00498    0.03092
  3 Na    0.02943   -0.00185   -0.02948
  4 Na   -0.02816    0.03844    0.03984
  5 Na   -0.02430    0.06889   -0.02804

System changes: positions 

Initializing position-dependent things.

Density initialized from wave functions
           .--------------------------------------.  
          /|                                      |  
         / |                                      |  
        /  |                                      |  
       /   |                                      |  
      /    |                                      |  
     /     |                                      |  
    /      |                                      |  
   /       |                                      |  
  /        |                                      |  
 *         |                                      |  
 |         |                                      |  
 |         |          Na                          |  
 |         |       Na       Na                    |  
 |         |                Na                    |  
 |         |                                      |  
 |         |                                      |  
 |         |             Na   Na                  |  
 |         |                                      |  
 |         |                                      |  
 |         .--------------------------------------.  
 |        /                                      /   
 |       /                                      /    
 |      /                                      /     
 |     /                                      /      
 |    /                                      /       
 |   /                                      /        
 |  /                                      /         
 | /                                      /          
 |/                                      /           
 *--------------------------------------*            

Positions:
   0 Na     8.397923    9.661710    8.784337    ( 0.0000,  0.0000,  0.0000)
   1 Na     6.499797    8.030109   10.758532    ( 0.0000,  0.0000,  0.0000)
   2 Na     5.041701    9.856405    8.353689    ( 0.0000,  0.0000,  0.0000)
   3 Na     7.236630    9.704254    5.611712    ( 0.0000,  0.0000,  0.0000)
   4 Na     9.812274    7.803896    6.641866    ( 0.0000,  0.0000,  0.0000)
   5 Na     9.328771    6.880871    9.702467    ( 0.0000,  0.0000,  0.0000)

Unit cell:
           periodic     x           y           z      points  spacing
  1. axis:    no    16.000000    0.000000    0.000000    64     0.2500
  2. axis:    no     0.000000   16.000000    0.000000    64     0.2500
  3. axis:    no     0.000000    0.000000   16.000000    64     0.2500

  Lengths:  16.000000  16.000000  16.000000
  Angles:   90.000000  90.000000  90.000000

Effective grid spacing dv^(1/3) = 0.2500

                     log10-error:    total        iterations:
           time      wfs    density  energy       fermi  poisson
iter:   1  22:33:02  -0.87   +inf    -5.507505    4             
iter:   2  22:33:04  -2.03  -0.65    -5.427957    2             
iter:   3  22:33:06  -2.25  -0.73    -5.268319    4             
iter:   4  22:33:07  -3.21  -1.28    -5.267572    2             
iter:   5  22:33:09  -3.57  -1.37    -5.265876    2             
iter:   6  22:33:10  -3.64  -1.59    -5.265974    2             
iter:   7  22:33:12  -4.24  -1.76    -5.265486    3             
iter:   8  22:33:14  -4.67  -2.14    -5.265513    2             
iter:   9  22:33:15  -5.07  -2.27    -5.265492    2             
iter:  10  22:33:17  -5.37  -2.53    -5.265487    2             
iter:  11  22:33:18  -5.79  -2.72    -5.265486    1             
iter:  12  22:33:20  -6.23  -2.78    -5.265486    2             
iter:  13  22:33:21  -6.55  -2.89    -5.265487    1             
iter:  14  22:33:23  -6.88  -3.00    -5.265487    1             
iter:  15  22:33:25  -6.82  -3.08    -5.265486    2             
iter:  16  22:33:26  -7.58  -3.34    -5.265486    1             
iter:  17  22:33:28  -7.99  -3.39    -5.265486    1             
iter:  18  22:33:29  -8.00  -3.44    -5.265486    1             
iter:  19  22:33:31  -8.23  -3.73    -5.265486    1             
iter:  20  22:33:32  -8.52  -3.83    -5.265486    1             
iter:  21  22:33:34  -8.97  -3.86    -5.265486    1             
iter:  22  22:33:36  -9.29  -4.04    -5.265486    1             

Converged after 22 iterations.

Dipole moment: (-0.049736, -0.074766, -0.039122) |e|*Ang

Energy contributions relative to reference atoms: (reference = -26392.251304)

Kinetic:        +15.186326
Potential:      -13.318626
External:        +0.000000
XC:              -7.131707
Entropy (-ST):   -0.000120
Local:           -0.001418
--------------------------
Free energy:     -5.265546
Extrapolated:    -5.265486

Fermi level: -2.42133

 Band  Eigenvalues  Occupancy
    0     -4.23651    2.00000
    1     -2.95298    1.99995
    2     -2.94245    1.99994
    3     -1.92981    0.00011
    4     -1.60046    0.00000
    5     -1.52067    0.00000
    6     -1.34019    0.00000
    7     -0.79399    0.00000
    8     -0.78604    0.00000
    9     -0.26482    0.00000

Gap: 1.013 eV
Transition (v -> c):
  (s=0, k=0, n=2, [0.00, 0.00, 0.00]) -> (s=0, k=0, n=3, [0.00, 0.00, 0.00])

Forces in eV/Ang:
  0 Na   -0.10858    0.18404   -0.08445
  1 Na   -0.13161   -0.00341    0.11831
  2 Na    0.03735    0.02692   -0.04498
  3 Na   -0.03247    0.03086    0.04248
  4 Na    0.08947   -0.02323   -0.16105
  5 Na    0.14557   -0.21572    0.12944

System changes: positions 

Initializing position-dependent things.

Density initialized from wave functions
           .--------------------------------------.  
          /|                                      |  
         / |                                      |  
        /  |                                      |  
       /   |                                      |  
      /    |                                      |  
     /     |                                      |  
    /      |                                      |  
   /       |                                      |  
  /        |                                      |  
 *         |                                      |  
 |         |          Na                          |  
 |         |                                      |  
 |         |       Na      Na                     |  
 |         |                Na                    |  
 |         |                                      |  
 |         |                                      |  
 |         |             Na   Na                  |  
 |         |                                      |  
 |         |                                      |  
 |         .--------------------------------------.  
 |        /                                      /   
 |       /                                      /    
 |      /                                      /     
 |     /                                      /      
 |    /                                      /       
 |   /                                      /        
 |  /                                      /         
 | /                                      /          
 |/                                      /           
 *--------------------------------------*            

Positions:
   0 Na     8.278863    9.626699    8.703491    ( 0.0000,  0.0000,  0.0000)
   1 Na     6.416711    8.070045   10.879488    ( 0.0000,  0.0000,  0.0000)
   2 Na     5.039553    9.905584    8.334307    ( 0.0000,  0.0000,  0.0000)
   3 Na     7.225819    9.750324    5.607226    ( 0.0000,  0.0000,  0.0000)
   4 Na     9.909233    7.827378    6.527155    ( 0.0000,  0.0000,  0.0000)
   5 Na     9.447504    6.755115    9.800414    ( 0.0000,  0.0000,  0.0000)

Unit cell:
           periodic     x           y           z      points  spacing
  1. axis:    no    16.000000    0.000000    0.000000    64     0.2500
  2. axis:    no     0.000000   16.000000    0.000000    64     0.2500
  3. axis:    no     0.000000    0.000000   16.000000    64     0.2500

  Lengths:  16.000000  16.000000  16.000000
  Angles:   90.000000  90.000000  90.000000

Effective grid spacing dv^(1/3) = 0.2500

                     log10-error:    total        iterations:
           time      wfs    density  energy       fermi  poisson
iter:   1  22:33:39  -0.88   +inf    -5.488541    4             
iter:   2  22:33:41  -2.11  -0.73    -5.441889    3             
iter:   3  22:33:42  -2.38  -0.80    -5.331665    4             
iter:   4  22:33:44  -3.49  -1.32    -5.330886    2             
iter:   5  22:33:46  -3.71  -1.39    -5.328213    2             
iter:   6  22:33:47  -3.88  -1.62    -5.328003    2             
iter:   7  22:33:49  -4.32  -1.75    -5.327759    3             
iter:   8  22:33:50  -4.81  -2.30    -5.327834    2             
iter:   9  22:33:52  -5.15  -2.30    -5.327766    2             
iter:  10  22:33:53  -5.45  -2.61    -5.327772    2             
iter:  11  22:33:55  -5.96  -2.79    -5.327772    1             
iter:  12  22:33:57  -6.35  -2.86    -5.327772    1             
iter:  13  22:33:58  -6.37  -2.90    -5.327773    2             
iter:  14  22:34:00  -6.89  -3.49    -5.327773    1             
iter:  15  22:34:01  -7.32  -3.57    -5.327772    1             
iter:  16  22:34:03  -7.67  -3.62    -5.327772    1             
iter:  17  22:34:04  -8.06  -3.87    -5.327772    1             
iter:  18  22:34:06  -8.39  -3.92    -5.327772    1             
iter:  19  22:34:08  -8.58  -3.99    -5.327772    1             
iter:  20  22:34:09  -9.07  -4.15    -5.327772    1             

Converged after 20 iterations.

Dipole moment: (-0.062091, -0.090809, -0.043896) |e|*Ang

Energy contributions relative to reference atoms: (reference = -26392.251304)

Kinetic:        +12.346247
Potential:      -11.122405
External:        +0.000000
XC:              -6.550013
Entropy (-ST):   -0.000066
Local:           -0.001568
--------------------------
Free energy:     -5.327805
Extrapolated:    -5.327772

Fermi level: -2.37892

 Band  Eigenvalues  Occupancy
    0     -4.14679    2.00000
    1     -2.94656    1.99998
    2     -2.93093    1.99997
    3     -1.85371    0.00005
    4     -1.60731    0.00000
    5     -1.59787    0.00000
    6     -1.32740    0.00000
    7     -0.77353    0.00000
    8     -0.76489    0.00000
    9     -0.32899    0.00000

Gap: 1.077 eV
Transition (v -> c):
  (s=0, k=0, n=2, [0.00, 0.00, 0.00]) -> (s=0, k=0, n=3, [0.00, 0.00, 0.00])

Forces in eV/Ang:
  0 Na    0.00250   -0.00275    0.00145
  1 Na    0.00152   -0.01291    0.01845
  2 Na   -0.00600    0.01179   -0.01681
  3 Na   -0.01677    0.01289   -0.00203
  4 Na    0.01794   -0.01377   -0.00168
  5 Na    0.00084    0.00498    0.00065

System changes: positions 

Initializing position-dependent things.

Density initialized from wave functions
           .--------------------------------------.  
          /|                                      |  
         / |                                      |  
        /  |                                      |  
       /   |                                      |  
      /    |                                      |  
     /     |                                      |  
    /      |                                      |  
   /       |                                      |  
  /        |                                      |  
 *         |                                      |  
 |         |          Na                          |  
 |         |                                      |  
 |         |       Na      Na                     |  
 |         |                Na                    |  
 |         |                                      |  
 |         |                                      |  
 |         |             Na   Na                  |  
 |         |                                      |  
 |         |                                      |  
 |         .--------------------------------------.  
 |        /                                      /   
 |       /                                      /    
 |      /                                      /     
 |     /                                      /      
 |    /                                      /       
 |   /                                      /        
 |  /                                      /         
 | /                                      /          
 |/                                      /           
 *--------------------------------------*            

Positions:
   0 Na     8.276405    9.600869    8.703467    ( 0.0000,  0.0000,  0.0000)
   1 Na     6.416296    8.056803   10.911679    ( 0.0000,  0.0000,  0.0000)
   2 Na     5.027297    9.928686    8.310910    ( 0.0000,  0.0000,  0.0000)
   3 Na     7.203211    9.773755    5.599838    ( 0.0000,  0.0000,  0.0000)
   4 Na     9.939107    7.812900    6.520673    ( 0.0000,  0.0000,  0.0000)
   5 Na     9.455378    6.762464    9.805534    ( 0.0000,  0.0000,  0.0000)

Unit cell:
           periodic     x           y           z      points  spacing
  1. axis:    no    16.000000    0.000000    0.000000    64     0.2500
  2. axis:    no     0.000000   16.000000    0.000000    64     0.2500
  3. axis:    no     0.000000    0.000000   16.000000    64     0.2500

  Lengths:  16.000000  16.000000  16.000000
  Angles:   90.000000  90.000000  90.000000

Effective grid spacing dv^(1/3) = 0.2500

                     log10-error:    total        iterations:
           time      wfs    density  energy       fermi  poisson
iter:   1  22:34:13  -2.29   +inf    -5.331942    2             
iter:   2  22:34:15  -3.43  -1.56    -5.331194    2             
iter:   3  22:34:16  -3.80  -1.61    -5.328890    3             
iter:   4  22:34:18  -4.94  -2.09    -5.328862    2             
iter:   5  22:34:19  -5.40  -2.13    -5.328813    1             
iter:   6  22:34:21  -5.22  -2.25    -5.328789    2             
iter:   7  22:34:22  -5.81  -2.48    -5.328785    2             
iter:   8  22:34:24  -6.37  -2.94    -5.328787    1             
iter:   9  22:34:26  -6.51  -2.97    -5.328785    1             
iter:  10  22:34:27  -6.94  -3.37    -5.328785    1             
iter:  11  22:34:29  -7.46  -3.50    -5.328785    1             
iter:  12  22:34:30  -7.49  -3.53    -5.328785    1             
iter:  13  22:34:32  -7.83  -3.71    -5.328785    1             
iter:  14  22:34:33  -8.44  -4.05    -5.328785    1             

Converged after 14 iterations.

Dipole moment: (-0.061824, -0.094658, -0.043241) |e|*Ang

Energy contributions relative to reference atoms: (reference = -26392.251304)

Kinetic:        +11.833080
Potential:      -10.721765
External:        +0.000000
XC:              -6.438504
Entropy (-ST):   -0.000059
Local:           -0.001566
--------------------------
Free energy:     -5.328815
Extrapolated:    -5.328785

Fermi level: -2.37137

 Band  Eigenvalues  Occupancy
    0     -4.13027    2.00000
    1     -2.93887    1.99998
    2     -2.93401    1.99997
    3     -1.83999    0.00005
    4     -1.61693    0.00000
    5     -1.60551    0.00000
    6     -1.32565    0.00000
    7     -0.77202    0.00000
    8     -0.75771    0.00000
    9     -0.34406    0.00000

Gap: 1.094 eV
Transition (v -> c):
  (s=0, k=0, n=2, [0.00, 0.00, 0.00]) -> (s=0, k=0, n=3, [0.00, 0.00, 0.00])

Forces in eV/Ang:
  0 Na   -0.01305    0.00031   -0.01048
  1 Na   -0.00010    0.00334   -0.00550
  2 Na    0.01188   -0.00324    0.00377
  3 Na    0.00527   -0.00189    0.01101
  4 Na   -0.00385    0.00339    0.00061
  5 Na   -0.00041   -0.00222    0.00045

System changes: positions 

Initializing position-dependent things.

Density initialized from wave functions
           .--------------------------------------.  
          /|                                      |  
         / |                                      |  
        /  |                                      |  
       /   |                                      |  
      /    |                                      |  
     /     |                                      |  
    /      |                                      |  
   /       |                                      |  
  /        |                                      |  
 *         |           Na                         |  
 |         |                                      |  
 |         |                Na                    |  
 |         |                                      |  
 |         |            Na                        |  
 |         |                    Na                |  
 |         |                                      |  
 |         |                Na                    |  
 |         |                                      |  
 |         |             Na                       |  
 |         .--------------------------------------.  
 |        /                                      /   
 |       /                                      /    
 |      /                                      /     
 |     /                                      /      
 |    /                                      /       
 |   /                                      /        
 |  /                                      /         
 | /                                      /          
 |/                                      /           
 *--------------------------------------*            

Positions:
   0 Na    11.424284    5.046686    9.667397    ( 0.0000,  0.0000,  0.0000)
   1 Na     9.089441    7.135919   10.704623    ( 0.0000,  0.0000,  0.0000)
   2 Na     6.698831    9.266177   11.510688    ( 0.0000,  0.0000,  0.0000)
   3 Na     7.669453    7.999286    5.120012    ( 0.0000,  0.0000,  0.0000)
   4 Na     9.608571    6.464100    7.305610    ( 0.0000,  0.0000,  0.0000)
   5 Na     7.097532    8.697992    8.290001    ( 0.0000,  0.0000,  0.0000)

Unit cell:
           periodic     x           y           z      points  spacing
  1. axis:    no    16.000000    0.000000    0.000000    64     0.2500
  2. axis:    no     0.000000   16.000000    0.000000    64     0.2500
  3. axis:    no     0.000000    0.000000   16.000000    64     0.2500

  Lengths:  16.000000  16.000000  16.000000
  Angles:   90.000000  90.000000  90.000000

Effective grid spacing dv^(1/3) = 0.2500

                     log10-error:    total        iterations:
           time      wfs    density  energy       fermi  poisson
iter:   1  22:34:37  +0.56   +inf   -11.436712    22            
iter:   2  22:34:39  -0.26  +0.05   -10.898410    4             
iter:   3  22:34:40  -0.93  +0.04   -11.120594    3             
iter:   4  22:34:42  -0.53  +0.05    -5.824790    22            
iter:   5  22:34:43  -1.53  -0.42    -5.630069    9             
iter:   6  22:34:45  -2.19  -0.42    -5.632213    1             
iter:   7  22:34:47  -1.84  -0.42    -5.425704    29            
iter:   8  22:34:48  -2.23  -0.63    -5.276428    2             
iter:   9  22:34:50  -2.96  -0.84    -5.286351    4             
iter:  10  22:34:51  -2.85  -0.93    -5.268290    3             
iter:  11  22:34:53  -3.81  -1.36    -5.267380    2             
iter:  12  22:34:54  -4.04  -1.40    -5.267794    2             
iter:  13  22:34:56  -4.39  -1.70    -5.268499    2             
iter:  14  22:34:58  -4.82  -1.90    -5.268503    2             
iter:  15  22:34:59  -5.20  -2.14    -5.268592    1             
iter:  16  22:35:01  -5.68  -2.34    -5.268587    2             
iter:  17  22:35:02  -6.04  -2.43    -5.268572    2             
iter:  18  22:35:04  -6.19  -2.49    -5.268565    2             
iter:  19  22:35:05  -6.68  -2.60    -5.268562    1             
iter:  20  22:35:07  -6.72  -2.66    -5.268550    1             
iter:  21  22:35:09  -7.47  -2.80    -5.268550    1             
iter:  22  22:35:10  -6.92  -2.83    -5.268556    1             
iter:  23  22:35:12  -7.72  -3.09    -5.268556    1             
iter:  24  22:35:13  -7.58  -3.15    -5.268556    1             
iter:  25  22:35:15  -8.35  -3.59    -5.268556    1             
iter:  26  22:35:16  -8.79  -3.69    -5.268556    1             
iter:  27  22:35:18  -9.18  -3.74    -5.268556    1             
iter:  28  22:35:20  -8.91  -3.78    -5.268556    1             
iter:  29  22:35:21  -9.53  -4.06    -5.268556    1             

Converged after 29 iterations.

Dipole moment: (0.016849, -0.010607, -0.011767) |e|*Ang

Energy contributions relative to reference atoms: (reference = -26392.251304)

Kinetic:        +11.998763
Potential:      -11.010711
External:        +0.000000
XC:              -6.255381
Entropy (-ST):   -0.000017
Local:           -0.001218
--------------------------
Free energy:     -5.268565
Extrapolated:    -5.268556

Fermi level: -2.37764

 Band  Eigenvalues  Occupancy
    0     -4.02613    2.00000
    1     -3.01110    1.99999
    2     -3.00846    1.99999
    3     -1.77566    0.00001
    4     -1.63078    0.00000
    5     -1.61285    0.00000
    6     -1.42341    0.00000
    7     -0.66136    0.00000
    8     -0.63986    0.00000
    9     -0.60295    0.00000

Gap: 1.233 eV
Transition (v -> c):
  (s=0, k=0, n=2, [0.00, 0.00, 0.00]) -> (s=0, k=0, n=3, [0.00, 0.00, 0.00])
System changes: positions 

Initializing position-dependent things.

Density initialized from wave functions
           .--------------------------------------.  
          /|                                      |  
         / |                                      |  
        /  |                                      |  
       /   |                                      |  
      /    |                                      |  
     /     |                                      |  
    /      |                                      |  
   /       |                                      |  
  /        |                                      |  
 *         |                                      |  
 |         |          Na                          |  
 |         |                                      |  
 |         |       Na      Na                     |  
 |         |                Na                    |  
 |         |                                      |  
 |         |                                      |  
 |         |             Na   Na                  |  
 |         |                                      |  
 |         |                                      |  
 |         .--------------------------------------.  
 |        /                                      /   
 |       /                                      /    
 |      /                                      /     
 |     /                                      /      
 |    /                                      /       
 |   /                                      /        
 |  /                                      /         
 | /                                      /          
 |/                                      /           
 *--------------------------------------*            

Positions:
   0 Na     8.276405    9.600869    8.703467    ( 0.0000,  0.0000,  0.0000)
   1 Na     6.416296    8.056803   10.911679    ( 0.0000,  0.0000,  0.0000)
   2 Na     5.027297    9.928686    8.310910    ( 0.0000,  0.0000,  0.0000)
   3 Na     7.203211    9.773755    5.599838    ( 0.0000,  0.0000,  0.0000)
   4 Na     9.939107    7.812900    6.520673    ( 0.0000,  0.0000,  0.0000)
   5 Na     9.455378    6.762464    9.805534    ( 0.0000,  0.0000,  0.0000)

Unit cell:
           periodic     x           y           z      points  spacing
  1. axis:    no    16.000000    0.000000    0.000000    64     0.2500
  2. axis:    no     0.000000   16.000000    0.000000    64     0.2500
  3. axis:    no     0.000000    0.000000   16.000000    64     0.2500

  Lengths:  16.000000  16.000000  16.000000
  Angles:   90.000000  90.000000  90.000000

Effective grid spacing dv^(1/3) = 0.2500

                     log10-error:    total        iterations:
           time      wfs    density  energy       fermi  poisson
iter:   1  22:35:24  +0.39   +inf    -8.026489    24            
iter:   2  22:35:25  -0.46  -0.07    -7.843358    3             
iter:   3  22:35:27  -1.16  -0.09    -6.388442    8             
iter:   4  22:35:28  -1.30  -0.25    -5.615323    30            
iter:   5  22:35:30  -2.17  -0.47    -5.476463    2             
iter:   6  22:35:31  -2.30  -0.55    -5.330937    4             
iter:   7  22:35:33  -2.55  -0.86    -5.351689    4             
iter:   8  22:35:35  -2.87  -0.95    -5.327844    3             
iter:   9  22:35:36  -3.47  -1.34    -5.328258    2             
iter:  10  22:35:38  -3.85  -1.45    -5.329000    3             
iter:  11  22:35:39  -4.20  -1.67    -5.328752    2             
iter:  12  22:35:41  -4.80  -1.93    -5.328703    2             
iter:  13  22:35:42  -5.00  -1.97    -5.328680    2             
iter:  14  22:35:44  -5.49  -2.06    -5.328696    2             
iter:  15  22:35:45  -5.96  -2.14    -5.328731    1             
iter:  16  22:35:47  -5.80  -2.20    -5.328737    1             
iter:  17  22:35:49  -6.22  -2.30    -5.328740    2             
iter:  18  22:35:50  -6.33  -2.36    -5.328760    2             
iter:  19  22:35:52  -6.65  -2.53    -5.328777    1             
iter:  20  22:35:53  -6.66  -2.61    -5.328789    1             
iter:  21  22:35:55  -6.79  -2.77    -5.328787    1             
iter:  22  22:35:56  -7.45  -2.84    -5.328787    1             
iter:  23  22:35:58  -7.48  -2.88    -5.328786    1             
iter:  24  22:36:00  -7.21  -2.97    -5.328786    1             
iter:  25  22:36:01  -7.75  -3.23    -5.328786    1             
iter:  26  22:36:03  -8.05  -3.28    -5.328786    1             
iter:  27  22:36:04  -8.06  -3.30    -5.328785    1             
iter:  28  22:36:06  -8.09  -3.36    -5.328785    1             
iter:  29  22:36:07  -8.29  -3.58    -5.328785    1             
iter:  30  22:36:09  -8.91  -3.78    -5.328785    1             
iter:  31  22:36:11  -8.70  -3.84    -5.328785    1             
iter:  32  22:36:12  -9.13  -3.98    -5.328785    1             
iter:  33  22:36:14 -10.06  -4.01    -5.328785    1             

Converged after 33 iterations.

Dipole moment: (-0.061843, -0.094668, -0.043083) |e|*Ang

Energy contributions relative to reference atoms: (reference = -26392.251304)

Kinetic:        +11.830602
Potential:      -10.719801
External:        +0.000000
XC:              -6.438295
Entropy (-ST):   -0.000059
Local:           -0.001262
--------------------------
Free energy:     -5.328815
Extrapolated:    -5.328785

Fermi level: -2.37134

 Band  Eigenvalues  Occupancy
    0     -4.13021    2.00000
    1     -2.93890    1.99998
    2     -2.93393    1.99997
    3     -1.83995    0.00005
    4     -1.61692    0.00000
    5     -1.60550    0.00000
    6     -1.32563    0.00000
    7     -0.77204    0.00000
    8     -0.75768    0.00000
    9     -0.33488    0.00000

Gap: 1.094 eV
Transition (v -> c):
  (s=0, k=0, n=2, [0.00, 0.00, 0.00]) -> (s=0, k=0, n=3, [0.00, 0.00, 0.00])
Timing:                                      incl.     excl.
-------------------------------------------------------------------
Density initialized from wave functions:     4.624     4.624   0.8% |
 Symmetrize density:                         0.000     0.000   0.0% |
Forces:                                     15.228    15.228   2.6% ||
Hamiltonian:                                14.975     0.099   0.0% |
 Atomic:                                     1.681     0.017   0.0% |
  XC Correction:                             1.664     1.664   0.3% |
 Calculate atomic Hamiltonians:              3.510     3.510   0.6% |
 Communicate:                                0.000     0.000   0.0% |
 Initialize Hamiltonian:                     0.000     0.000   0.0% |
 Poisson:                                    0.215     0.215   0.0% |
 XC 3D grid:                                 9.469     9.469   1.6% ||
LCAO initialization:                         0.087     0.017   0.0% |
 LCAO eigensolver:                           0.011     0.000   0.0% |
  Calculate projections:                     0.000     0.000   0.0% |
  DenseAtomicCorrection:                     0.000     0.000   0.0% |
  Distribute overlap matrix:                 0.000     0.000   0.0% |
  Orbital Layouts:                           0.000     0.000   0.0% |
  Potential matrix:                          0.010     0.010   0.0% |
 LCAO to grid:                               0.035     0.035   0.0% |
 Set positions (LCAO WFS):                   0.023     0.004   0.0% |
  Basic WFS set positions:                   0.000     0.000   0.0% |
  Basis functions set positions:             0.000     0.000   0.0% |
  P tci:                                     0.011     0.011   0.0% |
  ST tci:                                    0.003     0.003   0.0% |
  mktci:                                     0.005     0.005   0.0% |
PWDescriptor:                                0.012     0.012   0.0% |
Redistribute:                                0.010     0.010   0.0% |
SCF-cycle:                                 530.663     0.233   0.0% |
 Davidson:                                 112.229    33.307   5.7% |-|
  Apply H:                                  14.881    13.864   2.4% ||
   HMM T:                                    1.017     1.017   0.2% |
  Subspace diag:                            19.399     0.048   0.0% |
   calc_h_matrix:                           16.490     1.589   0.3% |
    Apply H:                                14.901    13.829   2.4% ||
     HMM T:                                  1.072     1.072   0.2% |
   diagonalize:                              0.072     0.072   0.0% |
   rotate_psi:                               2.789     2.789   0.5% |
  calc. matrices:                           39.528     9.746   1.7% ||
   Apply H:                                 29.782    27.709   4.8% |-|
    HMM T:                                   2.073     2.073   0.4% |
  diagonalize:                               0.246     0.246   0.0% |
  rotate_psi:                                4.869     4.869   0.8% |
 Density:                                  105.525     0.008   0.0% |
  Atomic density matrices:                   0.303     0.303   0.1% |
  Mix:                                      94.332    94.332  16.2% |-----|
  Multipole moments:                         0.078     0.078   0.0% |
  Pseudo density:                           10.804    10.795   1.9% ||
   Symmetrize density:                       0.009     0.009   0.0% |
 Hamiltonian:                              312.262     2.102   0.4% |
  Atomic:                                   35.333     0.356   0.1% |
   XC Correction:                           34.978    34.978   6.0% |-|
  Calculate atomic Hamiltonians:            73.550    73.550  12.7% |----|
  Communicate:                               0.004     0.004   0.0% |
  Poisson:                                   4.333     4.333   0.7% |
  XC 3D grid:                              196.941   196.941  33.9% |-------------|
 Orthonormalize:                             0.414     0.003   0.0% |
  calc_s_matrix:                             0.046     0.046   0.0% |
  inverse-cholesky:                          0.005     0.005   0.0% |
  projections:                               0.286     0.286   0.0% |
  rotate_psi_s:                              0.074     0.074   0.0% |
Set symmetry:                                0.001     0.001   0.0% |
Other:                                      15.502    15.502   2.7% ||
-------------------------------------------------------------------
Total:                                               581.103 100.0%

Memory usage: 514.00 MiB
Date: Tue Feb  4 22:36:14 2020
