
  ___ ___ ___ _ _ _  
 |   |   |_  | | | | 
 | | | | | . | | | | 
 |__ |  _|___|_____|  19.8.1
 |___|_|             

User:   ericlin@hebbe04-6
Date:   Wed Feb 12 20:20:18 2020
Arch:   x86_64
Pid:    8906
Python: 3.7.2
gpaw:   /apps/Hebbe7/software/MPI/GCC/8.2.0-2.31.1/OpenMPI/3.1.3/GPAW/19.8.1-Python-3.7.2-libvdwxc/lib/python3.7/site-packages/gpaw
_gpaw:  /apps/Hebbe7/software/MPI/GCC/8.2.0-2.31.1/OpenMPI/3.1.3/GPAW/19.8.1-Python-3.7.2-libvdwxc/bin/
        gpaw-python
ase:    /apps/Hebbe7/software/MPI/GCC/8.2.0-2.31.1/OpenMPI/3.1.3/ASE/3.18.0-Python-3.7.2/lib/python3.7/site-packages/ase (version 3.18.0)
numpy:  /apps/Hebbe7/software/MPI/GCC/8.2.0-2.31.1/OpenMPI/3.1.3/SciPy-bundle/2019.03/lib/python3.7/site-packages/numpy (version 1.16.2)
scipy:  /apps/Hebbe7/software/MPI/GCC/8.2.0-2.31.1/OpenMPI/3.1.3/SciPy-bundle/2019.03/lib/python3.7/site-packages/scipy (version 1.2.1)
libxc:  4.3.4
units:  Angstrom and eV
cores:  1

Input parameters:
  h: 0.25
  mode: {ecut: 350.0,
         gammacentered: False,
         name: pw}
  nbands: 10
  occupations: {name: fermi-dirac,
                width: 0.05}
  setups: {Na: 1}
  xc: vdW-DF-cx

System changes: positions, numbers, cell, pbc, initial_charges, initial_magmoms 

Initialize ...

Na-setup:
  name: Sodium
  id: 8dbce52902f3add137ce7d12431c9cac
  Z: 11
  valence: 1
  core: 10
  charge: 0.0
  file: /apps/Common/Core/GPAW-setups/0.9.20000/Na.1.PBE.gz
  compensation charges: gauss, rc=0.43, lmax=2
  cutoffs: 2.36(filt), 3.60(core),
  valence states:
                energy  radius
    3s(1.00)    -2.744   1.349
    3p(0.00)    -0.743   1.349
    *s          24.468   1.349

  Using partial waves for Na as LCAO basis

Reference energy: -26511.662975

Spin-paired calculation

Occupation numbers:
  Fermi-Dirac: width=0.0500 eV

Convergence criteria:
  Maximum total energy change: 0.0005 eV / electron
  Maximum integral of absolute density change: 0.0001 electrons
  Maximum integral of absolute eigenstate change: 4e-08 eV^2
  Maximum number of iterations: 333

Symmetries present (total): 1

  ( 1  0  0)
  ( 0  1  0)
  ( 0  0  1)

1 k-point (Gamma)
1 k-point in the irreducible part of the Brillouin zone
       k-points in crystal coordinates                weights
   0:     0.00000000    0.00000000    0.00000000          1/1

Wave functions: Plane wave expansion
  Cutoff energy: 350.000 eV
  Number of coefficients: 61037 (reduced to 30519)
  Pulay-stress correction: 0.000000 eV/Ang^3 (de/decut=0.000000)
  Using FFTW library
  ScaLapack parameters: grid=1x1, blocksize=None
  Wavefunction extrapolation:
    Improved wavefunction reuse through dual PAW basis 

Eigensolver
   Davidson(niter=2, smin=None, normalize=True) 

Densities:
  Coarse grid: 64*64*64 grid
  Fine grid: 128*128*128 grid
  Total Charge: 0.000000 

Density mixing:
  Method: separate
  Backend: pulay
  Linear mixing parameter: 0.05
  Mixing with 5 old densities
  Damping of long wave oscillations: 50 

Hamiltonian:
  XC and Coulomb potentials evaluated on a 128*128*128 grid
  Using the vdW-DF-cx Exchange-Correlation functional
 

XC parameters: vdW-DF-cx with libvdwxc
  Mode: serial
  Semilocal: GGA_X_LV_RPW86+LDA_C_PW with 2 nearest neighbor stencil
  Local blocksize: 128 x 128 x 128
  PAW datasets: PBE

Memory estimate:
  Process memory now: 573.05 MiB
  Calculator: 177.19 MiB
    Density: 123.30 MiB
      Arrays: 52.00 MiB
      Localized functions: 51.30 MiB
      Mixer: 20.00 MiB
    Hamiltonian: 35.05 MiB
      Arrays: 34.00 MiB
      XC: 0.00 MiB
      Poisson: 0.00 MiB
      vbar: 1.05 MiB
    Wavefunctions: 18.84 MiB
      Arrays psit_nG: 4.66 MiB
      Eigensolver: 6.99 MiB
      Projections: 0.00 MiB
      Projectors: 1.63 MiB
      PW-descriptor: 5.56 MiB

Total number of cores used: 1

Number of atoms: 6
Number of atomic orbitals: 24
Number of bands in calculation: 10
Bands to converge: occupied states only
Number of valence electrons: 6

... initialized

Initializing position-dependent things.

Density initialized from atomic densities
Creating initial wave functions:
  10 bands from LCAO basis set

           .--------------------------------------.  
          /|                                      |  
         / |                                      |  
        /  |                                      |  
       /   |                                      |  
      /    |                                      |  
     /     |                                      |  
    /      |                                      |  
   /       |                                      |  
  /        |                                      |  
 *         |           Na                         |  
 |         |                                      |  
 |         |                Na                    |  
 |         |                                      |  
 |         |            Na                        |  
 |         |                    Na                |  
 |         |                                      |  
 |         |                Na                    |  
 |         |                                      |  
 |         |             Na                       |  
 |         .--------------------------------------.  
 |        /                                      /   
 |       /                                      /    
 |      /                                      /     
 |     /                                      /      
 |    /                                      /       
 |   /                                      /        
 |  /                                      /         
 | /                                      /          
 |/                                      /           
 *--------------------------------------*            

Positions:
   0 Na    11.424955    5.046215    9.661160    ( 0.0000,  0.0000,  0.0000)
   1 Na     9.091214    7.135542   10.719357    ( 0.0000,  0.0000,  0.0000)
   2 Na     6.710298    9.263471   11.516303    ( 0.0000,  0.0000,  0.0000)
   3 Na     7.680133    8.011559    5.125248    ( 0.0000,  0.0000,  0.0000)
   4 Na     9.624253    6.463545    7.292195    ( 0.0000,  0.0000,  0.0000)
   5 Na     7.055205    8.690646    8.283979    ( 0.0000,  0.0000,  0.0000)

Unit cell:
           periodic     x           y           z      points  spacing
  1. axis:    no    16.000000    0.000000    0.000000    64     0.2500
  2. axis:    no     0.000000   16.000000    0.000000    64     0.2500
  3. axis:    no     0.000000    0.000000   16.000000    64     0.2500

  Lengths:  16.000000  16.000000  16.000000
  Angles:   90.000000  90.000000  90.000000

Effective grid spacing dv^(1/3) = 0.2500

                     log10-error:    total        iterations:
           time      wfs    density  energy       fermi  poisson
iter:   1  20:20:29  +0.19   +inf    17.505326    2             
iter:   2  20:20:37  -1.38  -0.53    17.500669    2             
iter:   3  20:20:44  -1.92  -0.54    17.523846    4             
iter:   4  20:20:52  -2.49  -0.77    17.511188    2             
iter:   5  20:21:00  -2.32  -0.85    17.496223    4             
iter:   6  20:21:08  -3.22  -1.54    17.497682    3             
iter:   7  20:21:15  -3.78  -1.83    17.496961    2             
iter:   8  20:21:20  -3.86  -1.75    17.497504    2             
iter:   9  20:21:26  -4.48  -2.26    17.497420    2             
iter:  10  20:21:33  -5.18  -2.34    17.497386    1             
iter:  11  20:21:39  -5.48  -2.61    17.497348    2             
iter:  12  20:21:47  -6.33  -2.71    17.497349    1             
iter:  13  20:21:54  -6.51  -2.74    17.497347    1             
iter:  14  20:22:01  -6.99  -2.85    17.497346    1             
iter:  15  20:22:08  -7.47  -2.93    17.497344    1             
iter:  16  20:22:15  -6.63  -2.98    17.497341    1             
iter:  17  20:22:22  -6.56  -3.17    17.497345    1             
iter:  18  20:22:29  -6.91  -3.47    17.497345    1             
iter:  19  20:22:35  -7.77  -3.72    17.497345    1             
iter:  20  20:22:42  -8.29  -3.75    17.497345    1             
iter:  21  20:22:49  -8.75  -3.80    17.497345    1             
iter:  22  20:22:56  -8.12  -3.83    17.497345    1             
iter:  23  20:23:03  -9.66  -3.96    17.497345    1             
iter:  24  20:23:10  -8.61  -3.99    17.497345    1             
iter:  25  20:23:17  -9.67  -4.10    17.497345    1             

Converged after 25 iterations.

Dipole moment: (0.023456, -0.011849, -0.009937) |e|*Ang

Energy contributions relative to reference atoms: (reference = -26511.662975)

Kinetic:         +7.823043
Potential:       -7.408755
External:        +0.000000
XC:             +17.080057
Entropy (-ST):   -0.000031
Local:           +0.003017
--------------------------
Free energy:    +17.497330
Extrapolated:   +17.497345

Non-local vdW-DF-cx correlation energy: 2.003521
Semilocal GGA_X_LV_RPW86+LDA_C_PW energy: -52.764766
(Not including atomic contributions)
Fermi level: -2.17307

 Band  Eigenvalues  Occupancy
    0     -3.75549    2.00000
    1     -2.77512    1.99999
    2     -2.77234    1.99999
    3     -1.60339    0.00002
    4     -1.45350    0.00000
    5     -1.41613    0.00000
    6     -1.31298    0.00000
    7     -0.68822    0.00000
    8     -0.63514    0.00000
    9     -0.56247    0.00000

Gap: 1.169 eV
Transition (v -> c):
  (s=0, k=0, n=2, [0.00, 0.00, 0.00]) -> (s=0, k=0, n=3, [0.00, 0.00, 0.00])
System changes: positions 

Initializing position-dependent things.

Density initialized from wave functions
           .--------------------------------------.  
          /|                                      |  
         / |                                      |  
        /  |                                      |  
       /   |                                      |  
      /    |                                      |  
     /     |                                      |  
    /      |                                      |  
   /       |                                      |  
  /        |                                      |  
 *         |                                      |  
 |         |          Na                          |  
 |         |                                      |  
 |         |       Na      Na                     |  
 |         |                Na                    |  
 |         |                                      |  
 |         |                                      |  
 |         |             Na   Na                  |  
 |         |                                      |  
 |         |                                      |  
 |         .--------------------------------------.  
 |        /                                      /   
 |       /                                      /    
 |      /                                      /     
 |     /                                      /      
 |    /                                      /       
 |   /                                      /        
 |  /                                      /         
 | /                                      /          
 |/                                      /           
 *--------------------------------------*            

Positions:
   0 Na     8.210231    9.489933    8.656516    ( 0.0000,  0.0000,  0.0000)
   1 Na     6.417931    8.101846   10.968460    ( 0.0000,  0.0000,  0.0000)
   2 Na     5.009862    9.947279    8.321395    ( 0.0000,  0.0000,  0.0000)
   3 Na     7.211492    9.790525    5.577356    ( 0.0000,  0.0000,  0.0000)
   4 Na     9.992557    7.848605    6.505352    ( 0.0000,  0.0000,  0.0000)
   5 Na     9.477264    6.754058    9.822530    ( 0.0000,  0.0000,  0.0000)

Unit cell:
           periodic     x           y           z      points  spacing
  1. axis:    no    16.000000    0.000000    0.000000    64     0.2500
  2. axis:    no     0.000000   16.000000    0.000000    64     0.2500
  3. axis:    no     0.000000    0.000000   16.000000    64     0.2500

  Lengths:  16.000000  16.000000  16.000000
  Angles:   90.000000  90.000000  90.000000

Effective grid spacing dv^(1/3) = 0.2500

                     log10-error:    total        iterations:
           time      wfs    density  energy       fermi  poisson
iter:   1  20:23:26  +0.33   +inf    15.652932    24            
iter:   2  20:23:33  -0.58  -0.10    15.833275    2             
iter:   3  20:23:39  -1.29  -0.13    16.758423    6             
iter:   4  20:23:46  -1.21  -0.25    17.331211    10            
iter:   5  20:23:53  -2.40  -0.49    17.482112    3             
iter:   6  20:24:00  -2.27  -0.57    17.529051    4             
iter:   7  20:24:07  -2.42  -0.85    17.479664    4             
iter:   8  20:24:15  -2.56  -1.00    17.482481    4             
iter:   9  20:24:22  -3.44  -1.28    17.479135    2             
iter:  10  20:24:29  -3.18  -1.40    17.470841    4             
iter:  11  20:24:36  -3.67  -1.55    17.473519    3             
iter:  12  20:24:43  -4.62  -1.89    17.473511    2             
iter:  13  20:24:50  -4.58  -1.93    17.473164    2             
iter:  14  20:24:57  -5.18  -2.09    17.473195    2             
iter:  15  20:25:04  -5.16  -2.22    17.473147    2             
iter:  16  20:25:11  -5.76  -2.30    17.473111    2             
iter:  17  20:25:18  -5.44  -2.39    17.472979    2             
iter:  18  20:25:25  -6.12  -2.59    17.472956    1             
iter:  19  20:25:32  -5.71  -2.67    17.472946    1             
iter:  20  20:25:40  -7.09  -3.19    17.472946    1             
iter:  21  20:25:47  -6.94  -3.20    17.472945    1             
iter:  22  20:25:53  -7.53  -3.45    17.472945    1             
iter:  23  20:26:00  -8.35  -3.63    17.472945    1             
iter:  24  20:26:07  -8.40  -3.67    17.472945    1             
iter:  25  20:26:14  -8.34  -3.80    17.472945    1             
iter:  26  20:26:21  -8.92  -3.90    17.472945    1             
iter:  27  20:26:29  -8.94  -3.95    17.472945    1             
iter:  28  20:26:36  -9.60  -4.04    17.472945    1             

Converged after 28 iterations.

Dipole moment: (-0.079224, -0.121578, -0.053046) |e|*Ang

Energy contributions relative to reference atoms: (reference = -26511.662975)

Kinetic:         +8.026638
Potential:       -7.408954
External:        +0.000000
XC:             +16.854118
Entropy (-ST):   -0.000063
Local:           +0.001175
--------------------------
Free energy:    +17.472914
Extrapolated:   +17.472945

Non-local vdW-DF-cx correlation energy: 1.957707
Semilocal GGA_X_LV_RPW86+LDA_C_PW energy: -52.876501
(Not including atomic contributions)
Fermi level: -2.14928

 Band  Eigenvalues  Occupancy
    0     -3.86429    2.00000
    1     -2.71559    1.99998
    2     -2.70776    1.99997
    3     -1.61867    0.00005
    4     -1.45444    0.00000
    5     -1.43275    0.00000
    6     -1.26388    0.00000
    7     -0.72333    0.00000
    8     -0.69159    0.00000
    9     -0.42200    0.00000

Gap: 1.089 eV
Transition (v -> c):
  (s=0, k=0, n=2, [0.00, 0.00, 0.00]) -> (s=0, k=0, n=3, [0.00, 0.00, 0.00])
System changes: positions 

Initializing position-dependent things.

Density initialized from wave functions
           .--------------------------------------.  
          /|                                      |  
         / |                                      |  
        /  |                                      |  
       /   |                                      |  
      /    |                                      |  
     /     |                                      |  
    /      |                                      |  
   /       |                                      |  
  /        |                                      |  
 *         |           Na                         |  
 |         |                                      |  
 |         |                Na                    |  
 |         |                                      |  
 |         |            Na                        |  
 |         |                    Na                |  
 |         |                                      |  
 |         |                Na                    |  
 |         |                                      |  
 |         |             Na                       |  
 |         .--------------------------------------.  
 |        /                                      /   
 |       /                                      /    
 |      /                                      /     
 |     /                                      /      
 |    /                                      /       
 |   /                                      /        
 |  /                                      /         
 | /                                      /          
 |/                                      /           
 *--------------------------------------*            

Positions:
   0 Na    11.424955    5.046215    9.661160    ( 0.0000,  0.0000,  0.0000)
   1 Na     9.091214    7.135542   10.719357    ( 0.0000,  0.0000,  0.0000)
   2 Na     6.710298    9.263471   11.516303    ( 0.0000,  0.0000,  0.0000)
   3 Na     7.680133    8.011559    5.125248    ( 0.0000,  0.0000,  0.0000)
   4 Na     9.624253    6.463545    7.292195    ( 0.0000,  0.0000,  0.0000)
   5 Na     7.055205    8.690646    8.283979    ( 0.0000,  0.0000,  0.0000)

Unit cell:
           periodic     x           y           z      points  spacing
  1. axis:    no    16.000000    0.000000    0.000000    64     0.2500
  2. axis:    no     0.000000   16.000000    0.000000    64     0.2500
  3. axis:    no     0.000000    0.000000   16.000000    64     0.2500

  Lengths:  16.000000  16.000000  16.000000
  Angles:   90.000000  90.000000  90.000000

Effective grid spacing dv^(1/3) = 0.2500

                     log10-error:    total        iterations:
           time      wfs    density  energy       fermi  poisson
iter:   1  20:26:44  +0.53   +inf    11.957353    29            
iter:   2  20:26:51  -0.37  +0.04    12.784073    5             
iter:   3  20:26:58  -1.09  +0.02    14.056879    7             
iter:   4  20:27:05  -0.84  -0.03    17.427542    26            
iter:   5  20:27:12  -1.90  -0.46    17.473299    3             
iter:   6  20:27:19  -1.77  -0.51    17.538174    8             
iter:   7  20:27:26  -2.30  -0.76    17.442172    5             
iter:   8  20:27:33  -2.47  -0.77    17.520874    5             
iter:   9  20:27:40  -3.13  -1.11    17.504214    3             
iter:  10  20:27:47  -3.35  -1.24    17.499209    2             
iter:  11  20:27:54  -3.14  -1.36    17.497003    3             
iter:  12  20:28:01  -4.18  -1.59    17.498512    3             
iter:  13  20:28:08  -5.12  -1.83    17.498425    1             
iter:  14  20:28:15  -4.05  -1.86    17.497335    2             
iter:  15  20:28:22  -5.20  -2.23    17.497395    2             
iter:  16  20:28:29  -6.13  -2.39    17.497397    1             
iter:  17  20:28:36  -5.20  -2.44    17.497343    2             
iter:  18  20:28:43  -6.52  -2.85    17.497343    1             
iter:  19  20:28:50  -7.03  -2.86    17.497345    1             
iter:  20  20:28:58  -6.45  -2.87    17.497354    1             
iter:  21  20:29:05  -7.33  -2.79    17.497354    1             
iter:  22  20:29:11  -6.68  -2.82    17.497348    1             
iter:  23  20:29:19  -6.28  -2.96    17.497344    1             
iter:  24  20:29:26  -7.22  -3.18    17.497344    1             
iter:  25  20:29:33  -7.28  -3.25    17.497344    1             
iter:  26  20:29:40  -8.16  -3.36    17.497344    1             
iter:  27  20:29:47  -7.27  -3.40    17.497345    1             
iter:  28  20:29:54  -8.32  -3.88    17.497345    1             
iter:  29  20:30:02  -8.96  -3.92    17.497345    1             
iter:  30  20:30:09  -9.03  -3.96    17.497345    1             
iter:  31  20:30:15  -9.09  -4.01    17.497345    1             

Converged after 31 iterations.

Dipole moment: (0.023431, -0.011776, -0.009853) |e|*Ang

Energy contributions relative to reference atoms: (reference = -26511.662975)

Kinetic:         +7.826578
Potential:       -7.411860
External:        +0.000000
XC:             +17.079817
Entropy (-ST):   -0.000031
Local:           +0.002825
--------------------------
Free energy:    +17.497329
Extrapolated:   +17.497345

Non-local vdW-DF-cx correlation energy: 2.003535
Semilocal GGA_X_LV_RPW86+LDA_C_PW energy: -52.764946
(Not including atomic contributions)
Fermi level: -2.17305

 Band  Eigenvalues  Occupancy
    0     -3.75547    2.00000
    1     -2.77512    1.99999
    2     -2.77231    1.99999
    3     -1.60338    0.00002
    4     -1.45351    0.00000
    5     -1.41612    0.00000
    6     -1.31300    0.00000
    7     -0.68817    0.00000
    8     -0.63511    0.00000
    9     -0.57409    0.00000

Gap: 1.169 eV
Transition (v -> c):
  (s=0, k=0, n=2, [0.00, 0.00, 0.00]) -> (s=0, k=0, n=3, [0.00, 0.00, 0.00])

Forces in eV/Ang:
  0 Na    0.15761   -0.13361    0.05415
  1 Na    0.03260   -0.02162    0.09807
  2 Na   -0.11059    0.10805    0.15573
  3 Na   -0.05177    0.03245   -0.20964
  4 Na    0.05097   -0.04845   -0.07692
  5 Na   -0.07910    0.06324   -0.02132

System changes: positions 

Initializing position-dependent things.

Density initialized from wave functions
           .--------------------------------------.  
          /|                                      |  
         / |                                      |  
        /  |                                      |  
       /   |                                      |  
      /    |                                      |  
     /     |                                      |  
    /      |                                      |  
   /       |                                      |  
  /        |                                      |  
 *         |           Na                         |  
 |         |                                      |  
 |         |                Na                    |  
 |         |                                      |  
 |         |           Na                         |  
 |         |                    Na                |  
 |         |                                      |  
 |         |                 Na                   |  
 |         |                                      |  
 |         |             Na                       |  
 |         .--------------------------------------.  
 |        /                                      /   
 |       /                                      /    
 |      /                                      /     
 |     /                                      /      
 |    /                                      /       
 |   /                                      /        
 |  /                                      /         
 | /                                      /          
 |/                                      /           
 *--------------------------------------*            

Positions:
   0 Na    11.576014    4.918162    9.713058    ( 0.0000,  0.0000,  0.0000)
   1 Na     9.122458    7.114817   10.813349    ( 0.0000,  0.0000,  0.0000)
   2 Na     6.604305    9.367025   11.665560    ( 0.0000,  0.0000,  0.0000)
   3 Na     7.630516    8.042659    4.924325    ( 0.0000,  0.0000,  0.0000)
   4 Na     9.673106    6.417107    7.218477    ( 0.0000,  0.0000,  0.0000)
   5 Na     6.979393    8.751257    8.263545    ( 0.0000,  0.0000,  0.0000)

Unit cell:
           periodic     x           y           z      points  spacing
  1. axis:    no    16.000000    0.000000    0.000000    64     0.2500
  2. axis:    no     0.000000   16.000000    0.000000    64     0.2500
  3. axis:    no     0.000000    0.000000   16.000000    64     0.2500

  Lengths:  16.000000  16.000000  16.000000
  Angles:   90.000000  90.000000  90.000000

Effective grid spacing dv^(1/3) = 0.2500

                     log10-error:    total        iterations:
           time      wfs    density  energy       fermi  poisson
iter:   1  20:30:26  -0.88   +inf    17.237999    4             
iter:   2  20:30:34  -2.09  -0.68    17.277906    3             
iter:   3  20:30:41  -1.86  -0.72    17.390804    6             
iter:   4  20:30:48  -3.17  -1.12    17.410824    3             
iter:   5  20:30:55  -3.91  -1.47    17.410909    2             
iter:   6  20:31:02  -3.27  -1.52    17.410326    3             
iter:   7  20:31:09  -4.39  -2.13    17.410212    2             
iter:   8  20:31:16  -5.05  -2.14    17.410120    2             
iter:   9  20:31:23  -5.10  -2.31    17.409939    2             
iter:  10  20:31:30  -5.38  -2.44    17.410015    2             
iter:  11  20:31:37  -4.46  -2.28    17.409861    2             
iter:  12  20:31:44  -6.06  -2.66    17.409886    2             
iter:  13  20:31:51  -6.93  -3.06    17.409885    1             
iter:  14  20:31:59  -6.73  -3.10    17.409882    1             
iter:  15  20:32:06  -7.18  -3.23    17.409883    1             
iter:  16  20:32:13  -7.24  -3.34    17.409882    1             
iter:  17  20:32:20  -7.66  -3.39    17.409882    1             
iter:  18  20:32:27  -7.21  -3.46    17.409883    1             
iter:  19  20:32:34  -8.10  -4.02    17.409883    1             

Converged after 19 iterations.

Dipole moment: (0.032199, -0.018069, -0.011583) |e|*Ang

Energy contributions relative to reference atoms: (reference = -26511.662975)

Kinetic:         +2.956585
Potential:       -3.540672
External:        +0.000000
XC:             +17.991225
Entropy (-ST):   -0.000057
Local:           +0.002773
--------------------------
Free energy:    +17.409854
Extrapolated:   +17.409883

Non-local vdW-DF-cx correlation energy: 2.007925
Semilocal GGA_X_LV_RPW86+LDA_C_PW energy: -52.127403
(Not including atomic contributions)
Fermi level: -2.17384

 Band  Eigenvalues  Occupancy
    0     -3.63032    2.00000
    1     -2.74490    1.99998
    2     -2.73872    1.99998
    3     -1.63687    0.00004
    4     -1.49015    0.00000
    5     -1.45145    0.00000
    6     -1.24145    0.00000
    7     -0.69269    0.00000
    8     -0.68396    0.00000
    9     -0.56655    0.00000

Gap: 1.102 eV
Transition (v -> c):
  (s=0, k=0, n=2, [0.00, 0.00, 0.00]) -> (s=0, k=0, n=3, [0.00, 0.00, 0.00])

Forces in eV/Ang:
  0 Na    0.02239   -0.01923    0.00653
  1 Na   -0.00460    0.00417    0.00129
  2 Na   -0.01261    0.01173    0.01802
  3 Na   -0.00719    0.00325   -0.02399
  4 Na   -0.00186    0.00080   -0.00142
  5 Na    0.00384   -0.00075   -0.00031

System changes: positions 

Initializing position-dependent things.

Density initialized from wave functions
           .--------------------------------------.  
          /|                                      |  
         / |                                      |  
        /  |                                      |  
       /   |                                      |  
      /    |                                      |  
     /     |                                      |  
    /      |                                      |  
   /       |                                      |  
  /        |           Na                         |  
 *         |                                      |  
 |         |                                      |  
 |         |                Na                    |  
 |         |                                      |  
 |         |           Na                         |  
 |         |                    Na                |  
 |         |                                      |  
 |         |                 Na                   |  
 |         |                                      |  
 |         |             Na                       |  
 |         .--------------------------------------.  
 |        /                                      /   
 |       /                                      /    
 |      /                                      /     
 |     /                                      /      
 |    /                                      /       
 |   /                                      /        
 |  /                                      /         
 | /                                      /          
 |/                                      /           
 *--------------------------------------*            

Positions:
   0 Na    11.635705    4.867071    9.731314    ( 0.0000,  0.0000,  0.0000)
   1 Na     9.116906    7.120669   10.825986    ( 0.0000,  0.0000,  0.0000)
   2 Na     6.568439    9.400928   11.716588    ( 0.0000,  0.0000,  0.0000)
   3 Na     7.611232    8.052317    4.856155    ( 0.0000,  0.0000,  0.0000)
   4 Na     9.674766    6.413652    7.207781    ( 0.0000,  0.0000,  0.0000)
   5 Na     6.978673    8.756334    8.260735    ( 0.0000,  0.0000,  0.0000)

Unit cell:
           periodic     x           y           z      points  spacing
  1. axis:    no    16.000000    0.000000    0.000000    64     0.2500
  2. axis:    no     0.000000   16.000000    0.000000    64     0.2500
  3. axis:    no     0.000000    0.000000   16.000000    64     0.2500

  Lengths:  16.000000  16.000000  16.000000
  Angles:   90.000000  90.000000  90.000000

Effective grid spacing dv^(1/3) = 0.2500

                     log10-error:    total        iterations:
           time      wfs    density  energy       fermi  poisson
iter:   1  20:32:45  -1.94   +inf    17.399224    3             
iter:   2  20:32:52  -3.15  -1.26    17.401917    2             
iter:   3  20:33:00  -3.12  -1.32    17.409805    3             
iter:   4  20:33:07  -4.44  -1.83    17.410280    2             
iter:   5  20:33:14  -4.85  -2.00    17.410276    2             
iter:   6  20:33:21  -4.53  -2.11    17.410283    2             
iter:   7  20:33:28  -5.25  -2.53    17.410267    2             
iter:   8  20:33:35  -5.91  -2.74    17.410253    1             
iter:   9  20:33:42  -6.19  -2.90    17.410249    2             
iter:  10  20:33:49  -6.03  -3.01    17.410242    1             
iter:  11  20:33:57  -7.34  -3.50    17.410242    1             
iter:  12  20:34:05  -7.67  -3.54    17.410242    1             
iter:  13  20:34:12  -8.37  -3.69    17.410242    1             
iter:  14  20:34:20  -8.23  -3.74    17.410242    1             
iter:  15  20:34:27  -8.52  -3.81    17.410242    1             
iter:  16  20:34:34  -9.02  -3.85    17.410242    1             
iter:  17  20:34:39  -8.58  -3.90    17.410242    1             
iter:  18  20:34:46  -9.03  -4.02    17.410242    1             

Converged after 18 iterations.

Dipole moment: (0.030112, -0.015814, -0.013006) |e|*Ang

Energy contributions relative to reference atoms: (reference = -26511.662975)

Kinetic:         +1.701332
Potential:       -2.526637
External:        +0.000000
XC:             +18.233176
Entropy (-ST):   -0.000078
Local:           +0.002410
--------------------------
Free energy:    +17.410203
Extrapolated:   +17.410242

Non-local vdW-DF-cx correlation energy: 2.008379
Semilocal GGA_X_LV_RPW86+LDA_C_PW energy: -51.952645
(Not including atomic contributions)
Fermi level: -2.17872

 Band  Eigenvalues  Occupancy
    0     -3.60187    2.00000
    1     -2.73058    1.99997
    2     -2.72780    1.99997
    3     -1.66038    0.00006
    4     -1.49558    0.00000
    5     -1.45140    0.00000
    6     -1.22505    0.00000
    7     -0.70143    0.00000
    8     -0.69146    0.00000
    9     -0.56442    0.00000

Gap: 1.067 eV
Transition (v -> c):
  (s=0, k=0, n=2, [0.00, 0.00, 0.00]) -> (s=0, k=0, n=3, [0.00, 0.00, 0.00])

Forces in eV/Ang:
  0 Na   -0.02579    0.02179   -0.00722
  1 Na    0.00505   -0.00491   -0.01099
  2 Na    0.00923   -0.01005   -0.01886
  3 Na    0.00380   -0.00374    0.02464
  4 Na   -0.00046    0.00031    0.01171
  5 Na    0.00776   -0.00312    0.00077

System changes: positions 

Initializing position-dependent things.

Density initialized from wave functions
           .--------------------------------------.  
          /|                                      |  
         / |                                      |  
        /  |                                      |  
       /   |                                      |  
      /    |                                      |  
     /     |                                      |  
    /      |                                      |  
   /       |                                      |  
  /        |                                      |  
 *         |           Na                         |  
 |         |                                      |  
 |         |                Na                    |  
 |         |                                      |  
 |         |            Na                        |  
 |         |                    Na                |  
 |         |                                      |  
 |         |                 Na                   |  
 |         |                                      |  
 |         |             Na                       |  
 |         .--------------------------------------.  
 |        /                                      /   
 |       /                                      /    
 |      /                                      /     
 |     /                                      /      
 |    /                                      /       
 |   /                                      /        
 |  /                                      /         
 | /                                      /          
 |/                                      /           
 *--------------------------------------*            

Positions:
   0 Na    11.603968    4.893865    9.721653    ( 0.0000,  0.0000,  0.0000)
   1 Na     9.117867    7.118851   10.808522    ( 0.0000,  0.0000,  0.0000)
   2 Na     6.583471    9.385241   11.690338    ( 0.0000,  0.0000,  0.0000)
   3 Na     7.617596    8.046924    4.890885    ( 0.0000,  0.0000,  0.0000)
   4 Na     9.669865    6.418035    7.224114    ( 0.0000,  0.0000,  0.0000)
   5 Na     6.992616    8.748281    8.263104    ( 0.0000,  0.0000,  0.0000)

Unit cell:
           periodic     x           y           z      points  spacing
  1. axis:    no    16.000000    0.000000    0.000000    64     0.2500
  2. axis:    no     0.000000   16.000000    0.000000    64     0.2500
  3. axis:    no     0.000000    0.000000   16.000000    64     0.2500

  Lengths:  16.000000  16.000000  16.000000
  Angles:   90.000000  90.000000  90.000000

Effective grid spacing dv^(1/3) = 0.2500

                     log10-error:    total        iterations:
           time      wfs    density  energy       fermi  poisson
iter:   1  20:34:57  -2.43   +inf    17.404065    2             
iter:   2  20:35:04  -3.61  -1.47    17.405177    2             
iter:   3  20:35:11  -3.54  -1.53    17.408321    3             
iter:   4  20:35:19  -4.81  -2.05    17.408471    2             
iter:   5  20:35:26  -5.31  -2.21    17.408473    2             
iter:   6  20:35:33  -4.99  -2.33    17.408468    2             
iter:   7  20:35:40  -5.72  -2.71    17.408465    2             
iter:   8  20:35:47  -6.32  -2.97    17.408459    1             
iter:   9  20:35:54  -6.51  -3.10    17.408457    1             
iter:  10  20:36:01  -6.50  -3.22    17.408455    1             
iter:  11  20:36:08  -7.75  -3.68    17.408455    1             
iter:  12  20:36:15  -7.71  -3.69    17.408455    1             
iter:  13  20:36:22  -8.85  -3.91    17.408455    1             
iter:  14  20:36:29  -8.98  -3.93    17.408455    1             
iter:  15  20:36:37  -8.84  -3.99    17.408455    1             
iter:  16  20:36:44  -8.98  -4.06    17.408455    1             

Converged after 16 iterations.

Dipole moment: (0.032989, -0.018919, -0.012055) |e|*Ang

Energy contributions relative to reference atoms: (reference = -26511.662975)

Kinetic:         +2.448399
Potential:       -3.127195
External:        +0.000000
XC:             +18.083943
Entropy (-ST):   -0.000069
Local:           +0.003343
--------------------------
Free energy:    +17.408420
Extrapolated:   +17.408455

Non-local vdW-DF-cx correlation energy: 2.007807
Semilocal GGA_X_LV_RPW86+LDA_C_PW energy: -52.060197
(Not including atomic contributions)
Fermi level: -2.17727

 Band  Eigenvalues  Occupancy
    0     -3.62113    2.00000
    1     -2.73721    1.99997
    2     -2.73181    1.99997
    3     -1.65215    0.00005
    4     -1.48716    0.00000
    5     -1.44696    0.00000
    6     -1.23542    0.00000
    7     -0.69374    0.00000
    8     -0.69141    0.00000
    9     -0.56407    0.00000

Gap: 1.080 eV
Transition (v -> c):
  (s=0, k=0, n=2, [0.00, 0.00, 0.00]) -> (s=0, k=0, n=3, [0.00, 0.00, 0.00])

Forces in eV/Ang:
  0 Na    0.00032   -0.00041    0.00091
  1 Na    0.00022    0.00043    0.00614
  2 Na    0.00026   -0.00082   -0.00205
  3 Na    0.00021   -0.00170    0.00102
  4 Na    0.00125   -0.00208   -0.00592
  5 Na   -0.00237    0.00469   -0.00001

System changes: positions 

Initializing position-dependent things.

Density initialized from wave functions
           .--------------------------------------.  
          /|                                      |  
         / |                                      |  
        /  |                                      |  
       /   |                                      |  
      /    |                                      |  
     /     |                                      |  
    /      |                                      |  
   /       |                                      |  
  /        |                                      |  
 *         |                                      |  
 |         |          Na                          |  
 |         |                                      |  
 |         |       Na      Na                     |  
 |         |                Na                    |  
 |         |                                      |  
 |         |                                      |  
 |         |             Na   Na                  |  
 |         |                                      |  
 |         |                                      |  
 |         .--------------------------------------.  
 |        /                                      /   
 |       /                                      /    
 |      /                                      /     
 |     /                                      /      
 |    /                                      /       
 |   /                                      /        
 |  /                                      /         
 | /                                      /          
 |/                                      /           
 *--------------------------------------*            

Positions:
   0 Na     8.210231    9.489933    8.656516    ( 0.0000,  0.0000,  0.0000)
   1 Na     6.417931    8.101846   10.968460    ( 0.0000,  0.0000,  0.0000)
   2 Na     5.009862    9.947279    8.321395    ( 0.0000,  0.0000,  0.0000)
   3 Na     7.211492    9.790525    5.577356    ( 0.0000,  0.0000,  0.0000)
   4 Na     9.992557    7.848605    6.505352    ( 0.0000,  0.0000,  0.0000)
   5 Na     9.477264    6.754058    9.822530    ( 0.0000,  0.0000,  0.0000)

Unit cell:
           periodic     x           y           z      points  spacing
  1. axis:    no    16.000000    0.000000    0.000000    64     0.2500
  2. axis:    no     0.000000   16.000000    0.000000    64     0.2500
  3. axis:    no     0.000000    0.000000   16.000000    64     0.2500

  Lengths:  16.000000  16.000000  16.000000
  Angles:   90.000000  90.000000  90.000000

Effective grid spacing dv^(1/3) = 0.2500

                     log10-error:    total        iterations:
           time      wfs    density  energy       fermi  poisson
iter:   1  20:36:55  +0.29   +inf    16.089787    26            
iter:   2  20:37:01  -0.64  -0.15    16.180288    2             
iter:   3  20:37:08  -1.36  -0.17    16.957842    5             
iter:   4  20:37:16  -1.33  -0.30    17.390598    9             
iter:   5  20:37:23  -2.45  -0.55    17.507873    3             
iter:   6  20:37:29  -2.30  -0.62    17.519901    4             
iter:   7  20:37:36  -2.47  -0.90    17.481018    4             
iter:   8  20:37:44  -2.67  -1.05    17.480141    3             
iter:   9  20:37:51  -3.50  -1.32    17.477497    2             
iter:  10  20:37:58  -3.25  -1.45    17.471508    3             
iter:  11  20:38:05  -3.84  -1.64    17.473327    3             
iter:  12  20:38:12  -4.82  -1.96    17.473325    2             
iter:  13  20:38:19  -4.69  -1.99    17.473091    2             
iter:  14  20:38:26  -5.30  -2.18    17.473110    2             
iter:  15  20:38:33  -5.12  -2.32    17.473026    2             
iter:  16  20:38:40  -5.59  -2.38    17.473009    2             
iter:  17  20:38:47  -6.28  -2.59    17.472986    1             
iter:  18  20:38:54  -6.16  -2.66    17.472957    1             
iter:  19  20:39:02  -5.94  -2.80    17.472945    2             
iter:  20  20:39:09  -6.97  -3.07    17.472947    1             
iter:  21  20:39:16  -6.79  -3.25    17.472945    1             
iter:  22  20:39:23  -7.23  -3.27    17.472946    1             
iter:  23  20:39:30  -8.29  -3.58    17.472946    1             
iter:  24  20:39:37  -7.75  -3.62    17.472946    1             
iter:  25  20:39:44  -8.23  -3.84    17.472946    1             
iter:  26  20:39:52  -9.08  -3.97    17.472946    1             
iter:  27  20:39:59  -9.04  -4.03    17.472946    1             

Converged after 27 iterations.

Dipole moment: (-0.079066, -0.121459, -0.053013) |e|*Ang

Energy contributions relative to reference atoms: (reference = -26511.662975)

Kinetic:         +8.028805
Potential:       -7.410931
External:        +0.000000
XC:             +16.853942
Entropy (-ST):   -0.000063
Local:           +0.001161
--------------------------
Free energy:    +17.472914
Extrapolated:   +17.472946

Non-local vdW-DF-cx correlation energy: 1.957716
Semilocal GGA_X_LV_RPW86+LDA_C_PW energy: -52.876580
(Not including atomic contributions)
Fermi level: -2.14930

 Band  Eigenvalues  Occupancy
    0     -3.86431    2.00000
    1     -2.71559    1.99998
    2     -2.70777    1.99997
    3     -1.61869    0.00005
    4     -1.45444    0.00000
    5     -1.43276    0.00000
    6     -1.26389    0.00000
    7     -0.72333    0.00000
    8     -0.69160    0.00000
    9     -0.43896    0.00000

Gap: 1.089 eV
Transition (v -> c):
  (s=0, k=0, n=2, [0.00, 0.00, 0.00]) -> (s=0, k=0, n=3, [0.00, 0.00, 0.00])

Forces in eV/Ang:
  0 Na    0.10527    0.20255    0.07162
  1 Na   -0.09969   -0.06919    0.16303
  2 Na   -0.18903    0.05805   -0.01146
  3 Na   -0.05057    0.04928   -0.18499
  4 Na    0.13499   -0.08554   -0.12760
  5 Na    0.09901   -0.15540    0.08932

System changes: positions 

Initializing position-dependent things.

Density initialized from wave functions
           .--------------------------------------.  
          /|                                      |  
         / |                                      |  
        /  |                                      |  
       /   |                                      |  
      /    |                                      |  
     /     |                                      |  
    /      |                                      |  
   /       |                                      |  
  /        |                                      |  
 *         |                                      |  
 |         |         Na                           |  
 |         |                                      |  
 |         |       Na      NNa                    |  
 |         |                                      |  
 |         |                                      |  
 |         |                                      |  
 |         |             Na   Na                  |  
 |         |                                      |  
 |         |                                      |  
 |         .--------------------------------------.  
 |        /                                      /   
 |       /                                      /    
 |      /                                      /     
 |     /                                      /      
 |    /                                      /       
 |   /                                      /        
 |  /                                      /         
 | /                                      /          
 |/                                      /           
 *--------------------------------------*            

Positions:
   0 Na     8.292695    9.648602    8.712620    ( 0.0000,  0.0000,  0.0000)
   1 Na     6.339840    8.047645   11.096173    ( 0.0000,  0.0000,  0.0000)
   2 Na     4.861781    9.992756    8.312418    ( 0.0000,  0.0000,  0.0000)
   3 Na     7.171882    9.829130    5.432442    ( 0.0000,  0.0000,  0.0000)
   4 Na    10.098300    7.781599    6.405398    ( 0.0000,  0.0000,  0.0000)
   5 Na     9.554825    6.632320    9.892498    ( 0.0000,  0.0000,  0.0000)

Unit cell:
           periodic     x           y           z      points  spacing
  1. axis:    no    16.000000    0.000000    0.000000    64     0.2500
  2. axis:    no     0.000000   16.000000    0.000000    64     0.2500
  3. axis:    no     0.000000    0.000000   16.000000    64     0.2500

  Lengths:  16.000000  16.000000  16.000000
  Angles:   90.000000  90.000000  90.000000

Effective grid spacing dv^(1/3) = 0.2500

                     log10-error:    total        iterations:
           time      wfs    density  energy       fermi  poisson
iter:   1  20:40:10  -0.87   +inf    17.290353    5             
iter:   2  20:40:17  -2.15  -0.79    17.308565    3             
iter:   3  20:40:24  -1.88  -0.82    17.359656    7             
iter:   4  20:40:32  -3.08  -1.09    17.383624    4             
iter:   5  20:40:39  -3.56  -1.47    17.383767    2             
iter:   6  20:40:45  -3.24  -1.67    17.379834    2             
iter:   7  20:40:53  -4.41  -1.56    17.381575    2             
iter:   8  20:41:01  -4.15  -1.71    17.382173    2             
iter:   9  20:41:09  -4.88  -2.07    17.382195    2             
iter:  10  20:41:16  -4.77  -2.19    17.382229    2             
iter:  11  20:41:24  -5.54  -2.64    17.382215    2             
iter:  12  20:41:32  -6.06  -2.71    17.382208    2             
iter:  13  20:41:39  -5.52  -2.76    17.382175    2             
iter:  14  20:41:45  -6.65  -2.87    17.382180    2             
iter:  15  20:41:51  -7.35  -3.04    17.382181    1             
iter:  16  20:41:58  -6.50  -3.07    17.382175    2             
iter:  17  20:42:05  -6.52  -3.17    17.382176    2             
iter:  18  20:42:12  -7.18  -3.14    17.382176    1             
iter:  19  20:42:19  -7.19  -3.42    17.382176    1             
iter:  20  20:42:26  -7.85  -3.62    17.382176    1             
iter:  21  20:42:33  -8.60  -3.83    17.382176    1             
iter:  22  20:42:40  -9.03  -3.89    17.382176    1             
iter:  23  20:42:47  -8.96  -3.94    17.382176    1             
iter:  24  20:42:55  -8.83  -3.99    17.382176    1             
iter:  25  20:43:01  -9.61  -4.08    17.382176    1             

Converged after 25 iterations.

Dipole moment: (-0.075298, -0.105327, -0.050068) |e|*Ang

Energy contributions relative to reference atoms: (reference = -26511.662975)

Kinetic:         +2.097532
Potential:       -2.729433
External:        +0.000000
XC:             +18.012501
Entropy (-ST):   -0.000123
Local:           +0.001637
--------------------------
Free energy:    +17.382115
Extrapolated:   +17.382176

Non-local vdW-DF-cx correlation energy: 1.960976
Semilocal GGA_X_LV_RPW86+LDA_C_PW energy: -52.067930
(Not including atomic contributions)
Fermi level: -2.14302

 Band  Eigenvalues  Occupancy
    0     -3.71511    2.00000
    1     -2.67134    1.99995
    2     -2.66669    1.99994
    3     -1.64769    0.00010
    4     -1.49926    0.00001
    5     -1.47648    0.00000
    6     -1.21329    0.00000
    7     -0.75517    0.00000
    8     -0.72115    0.00000
    9     -0.45594    0.00000

Gap: 1.019 eV
Transition (v -> c):
  (s=0, k=0, n=2, [0.00, 0.00, 0.00]) -> (s=0, k=0, n=3, [0.00, 0.00, 0.00])

Forces in eV/Ang:
  0 Na   -0.00442   -0.01349   -0.00327
  1 Na    0.00584   -0.00021   -0.00838
  2 Na    0.00600    0.00058    0.00205
  3 Na    0.00255    0.00135    0.00597
  4 Na   -0.00524    0.00080    0.00724
  5 Na   -0.00489    0.01066   -0.00375

System changes: positions 

Initializing position-dependent things.

Density initialized from wave functions
           .--------------------------------------.  
          /|                                      |  
         / |                                      |  
        /  |                                      |  
       /   |                                      |  
      /    |                                      |  
     /     |                                      |  
    /      |                                      |  
   /       |                                      |  
  /        |                                      |  
 *         |           Na                         |  
 |         |                                      |  
 |         |                Na                    |  
 |         |                                      |  
 |         |            Na                        |  
 |         |                    Na                |  
 |         |                                      |  
 |         |                 Na                   |  
 |         |                                      |  
 |         |             Na                       |  
 |         .--------------------------------------.  
 |        /                                      /   
 |       /                                      /    
 |      /                                      /     
 |     /                                      /      
 |    /                                      /       
 |   /                                      /        
 |  /                                      /         
 | /                                      /          
 |/                                      /           
 *--------------------------------------*            

Positions:
   0 Na    11.603968    4.893865    9.721653    ( 0.0000,  0.0000,  0.0000)
   1 Na     9.117867    7.118851   10.808522    ( 0.0000,  0.0000,  0.0000)
   2 Na     6.583471    9.385241   11.690338    ( 0.0000,  0.0000,  0.0000)
   3 Na     7.617596    8.046924    4.890885    ( 0.0000,  0.0000,  0.0000)
   4 Na     9.669865    6.418035    7.224114    ( 0.0000,  0.0000,  0.0000)
   5 Na     6.992616    8.748281    8.263104    ( 0.0000,  0.0000,  0.0000)

Unit cell:
           periodic     x           y           z      points  spacing
  1. axis:    no    16.000000    0.000000    0.000000    64     0.2500
  2. axis:    no     0.000000   16.000000    0.000000    64     0.2500
  3. axis:    no     0.000000    0.000000   16.000000    64     0.2500

  Lengths:  16.000000  16.000000  16.000000
  Angles:   90.000000  90.000000  90.000000

Effective grid spacing dv^(1/3) = 0.2500

                     log10-error:    total        iterations:
           time      wfs    density  energy       fermi  poisson
iter:   1  20:43:12  +0.42   +inf    13.796870    29            
iter:   2  20:43:19  -0.44  -0.02    14.528870    5             
iter:   3  20:43:26  -1.19  -0.05    15.655166    6             
iter:   4  20:43:33  -1.01  -0.12    17.457003    28            
iter:   5  20:43:40  -2.10  -0.55    17.465716    2             
iter:   6  20:43:48  -2.05  -0.57    17.469122    6             
iter:   7  20:43:55  -2.43  -0.82    17.403641    4             
iter:   8  20:44:02  -2.59  -0.87    17.431692    4             
iter:   9  20:44:09  -3.21  -1.17    17.417630    3             
iter:  10  20:44:15  -3.36  -1.33    17.410070    2             
iter:  11  20:44:23  -3.95  -1.41    17.411195    3             
iter:  12  20:44:30  -3.75  -1.51    17.409368    2             
iter:  13  20:44:37  -4.55  -1.93    17.408937    2             
iter:  14  20:44:44  -5.34  -2.03    17.408902    2             
iter:  15  20:44:51  -5.38  -2.12    17.408872    2             
iter:  16  20:44:58  -6.29  -2.18    17.408829    1             
iter:  17  20:45:06  -4.86  -2.21    17.408495    1             
iter:  18  20:45:13  -5.97  -2.42    17.408479    1             
iter:  19  20:45:20  -5.35  -2.49    17.408450    2             
iter:  20  20:45:27  -6.74  -2.79    17.408450    1             
iter:  21  20:45:34  -6.45  -2.85    17.408452    1             
iter:  22  20:45:41  -7.30  -3.15    17.408452    1             
iter:  23  20:45:48  -6.81  -3.19    17.408454    1             
iter:  24  20:45:55  -7.58  -3.49    17.408455    1             
iter:  25  20:46:02  -8.20  -3.54    17.408455    1             
iter:  26  20:46:10  -8.03  -3.67    17.408455    1             
iter:  27  20:46:17  -8.73  -3.80    17.408455    1             
iter:  28  20:46:24  -7.79  -3.84    17.408455    1             
iter:  29  20:46:30  -8.93  -4.29    17.408455    1             

Converged after 29 iterations.

Dipole moment: (0.032767, -0.018748, -0.012125) |e|*Ang

Energy contributions relative to reference atoms: (reference = -26511.662975)

Kinetic:         +2.442946
Potential:       -3.122093
External:        +0.000000
XC:             +18.084776
Entropy (-ST):   -0.000069
Local:           +0.002860
--------------------------
Free energy:    +17.408420
Extrapolated:   +17.408455

Non-local vdW-DF-cx correlation energy: 2.007787
Semilocal GGA_X_LV_RPW86+LDA_C_PW energy: -52.059731
(Not including atomic contributions)
Fermi level: -2.17733

 Band  Eigenvalues  Occupancy
    0     -3.62120    2.00000
    1     -2.73726    1.99997
    2     -2.73191    1.99997
    3     -1.65219    0.00005
    4     -1.48722    0.00000
    5     -1.44701    0.00000
    6     -1.23546    0.00000
    7     -0.69370    0.00000
    8     -0.69144    0.00000
    9     -0.57959    0.00000

Gap: 1.080 eV
Transition (v -> c):
  (s=0, k=0, n=2, [0.00, 0.00, 0.00]) -> (s=0, k=0, n=3, [0.00, 0.00, 0.00])
System changes: positions 

Initializing position-dependent things.

Density initialized from wave functions
           .--------------------------------------.  
          /|                                      |  
         / |                                      |  
        /  |                                      |  
       /   |                                      |  
      /    |                                      |  
     /     |                                      |  
    /      |                                      |  
   /       |                                      |  
  /        |                                      |  
 *         |                                      |  
 |         |         Na                           |  
 |         |                                      |  
 |         |       Na      NNa                    |  
 |         |                                      |  
 |         |                                      |  
 |         |                                      |  
 |         |             Na   Na                  |  
 |         |                                      |  
 |         |                                      |  
 |         .--------------------------------------.  
 |        /                                      /   
 |       /                                      /    
 |      /                                      /     
 |     /                                      /      
 |    /                                      /       
 |   /                                      /        
 |  /                                      /         
 | /                                      /          
 |/                                      /           
 *--------------------------------------*            

Positions:
   0 Na     8.292695    9.648602    8.712620    ( 0.0000,  0.0000,  0.0000)
   1 Na     6.339840    8.047645   11.096173    ( 0.0000,  0.0000,  0.0000)
   2 Na     4.861781    9.992756    8.312418    ( 0.0000,  0.0000,  0.0000)
   3 Na     7.171882    9.829130    5.432442    ( 0.0000,  0.0000,  0.0000)
   4 Na    10.098300    7.781599    6.405398    ( 0.0000,  0.0000,  0.0000)
   5 Na     9.554825    6.632320    9.892498    ( 0.0000,  0.0000,  0.0000)

Unit cell:
           periodic     x           y           z      points  spacing
  1. axis:    no    16.000000    0.000000    0.000000    64     0.2500
  2. axis:    no     0.000000   16.000000    0.000000    64     0.2500
  3. axis:    no     0.000000    0.000000   16.000000    64     0.2500

  Lengths:  16.000000  16.000000  16.000000
  Angles:   90.000000  90.000000  90.000000

Effective grid spacing dv^(1/3) = 0.2500

                     log10-error:    total        iterations:
           time      wfs    density  energy       fermi  poisson
iter:   1  20:46:38  +0.25   +inf    16.232276    21            
iter:   2  20:46:46  -0.67  -0.16    16.307760    3             
iter:   3  20:46:53  -1.40  -0.18    16.928579    5             
iter:   4  20:47:00  -1.34  -0.30    17.292627    9             
iter:   5  20:47:07  -2.49  -0.53    17.418162    3             
iter:   6  20:47:14  -2.29  -0.61    17.427690    4             
iter:   7  20:47:22  -2.66  -0.90    17.397223    3             
iter:   8  20:47:28  -2.65  -1.04    17.390840    3             
iter:   9  20:47:35  -3.43  -1.32    17.386131    3             
iter:  10  20:47:42  -3.34  -1.44    17.381474    3             
iter:  11  20:47:49  -4.02  -1.67    17.382699    3             
iter:  12  20:47:56  -4.88  -1.87    17.382649    2             
iter:  13  20:48:03  -4.55  -1.91    17.382405    2             
iter:  14  20:48:10  -5.45  -2.11    17.382419    2             
iter:  15  20:48:18  -4.84  -2.17    17.382215    2             
iter:  16  20:48:25  -5.63  -2.49    17.382201    2             
iter:  17  20:48:32  -6.24  -2.67    17.382191    1             
iter:  18  20:48:39  -6.58  -2.78    17.382183    1             
iter:  19  20:48:46  -6.38  -2.89    17.382177    1             
iter:  20  20:48:53  -7.46  -3.13    17.382177    1             
iter:  21  20:49:00  -7.43  -3.16    17.382178    1             
iter:  22  20:49:07  -7.64  -3.25    17.382178    1             
iter:  23  20:49:14  -7.17  -3.30    17.382177    1             
iter:  24  20:49:21  -7.99  -3.58    17.382177    1             
iter:  25  20:49:28  -7.71  -3.64    17.382177    1             
iter:  26  20:49:35  -8.50  -3.87    17.382177    1             
iter:  27  20:49:42  -9.26  -3.95    17.382177    1             
iter:  28  20:49:50  -8.36  -3.99    17.382176    1             
iter:  29  20:49:56  -9.63  -4.31    17.382176    1             

Converged after 29 iterations.

Dipole moment: (-0.075253, -0.105505, -0.050103) |e|*Ang

Energy contributions relative to reference atoms: (reference = -26511.662975)

Kinetic:         +2.099790
Potential:       -2.731580
External:        +0.000000
XC:             +18.012328
Entropy (-ST):   -0.000123
Local:           +0.001699
--------------------------
Free energy:    +17.382115
Extrapolated:   +17.382176

Non-local vdW-DF-cx correlation energy: 1.960980
Semilocal GGA_X_LV_RPW86+LDA_C_PW energy: -52.067965
(Not including atomic contributions)
Fermi level: -2.14302

 Band  Eigenvalues  Occupancy
    0     -3.71510    2.00000
    1     -2.67134    1.99995
    2     -2.66669    1.99994
    3     -1.64769    0.00010
    4     -1.49928    0.00001
    5     -1.47652    0.00000
    6     -1.21335    0.00000
    7     -0.75515    0.00000
    8     -0.72113    0.00000
    9     -0.44913    0.00000

Gap: 1.019 eV
Transition (v -> c):
  (s=0, k=0, n=2, [0.00, 0.00, 0.00]) -> (s=0, k=0, n=3, [0.00, 0.00, 0.00])
Timing:                                      incl.     excl.
-------------------------------------------------------------------
Density initialized from wave functions:     5.017     5.016   0.3% |
 Symmetrize density:                         0.001     0.001   0.0% |
Forces:                                     18.448    18.448   1.0% |
Hamiltonian:                                61.290     0.117   0.0% |
 Atomic:                                     2.611     0.014   0.0% |
  XC Correction:                             2.597     2.597   0.1% |
 Calculate atomic Hamiltonians:              4.393     4.393   0.2% |
 Communicate:                                0.000     0.000   0.0% |
 Initialize Hamiltonian:                     0.001     0.001   0.0% |
 Poisson:                                    0.201     0.201   0.0% |
 XC 3D grid:                                53.968     0.846   0.0% |
  van der Waals:                            53.121     1.969   0.1% |
   libvdwxc nonlocal:                       38.273    38.273   2.2% ||
   redistribute:                             1.898     1.898   0.1% |
   semilocal:                               10.980    10.980   0.6% |
LCAO initialization:                         0.143     0.025   0.0% |
 LCAO eigensolver:                           0.012     0.000   0.0% |
  Calculate projections:                     0.000     0.000   0.0% |
  DenseAtomicCorrection:                     0.000     0.000   0.0% |
  Distribute overlap matrix:                 0.000     0.000   0.0% |
  Orbital Layouts:                           0.000     0.000   0.0% |
  Potential matrix:                          0.011     0.011   0.0% |
 LCAO to grid:                               0.079     0.079   0.0% |
 Set positions (LCAO WFS):                   0.027     0.005   0.0% |
  Basic WFS set positions:                   0.001     0.001   0.0% |
  Basis functions set positions:             0.000     0.000   0.0% |
  P tci:                                     0.013     0.013   0.0% |
  ST tci:                                    0.003     0.003   0.0% |
  mktci:                                     0.005     0.005   0.0% |
PWDescriptor:                                0.024     0.024   0.0% |
Redistribute:                                0.011     0.011   0.0% |
SCF-cycle:                                1680.849     0.274   0.0% |
 Davidson:                                 109.516    21.928   1.2% |
  Apply H:                                  18.257    17.448   1.0% |
   HMM T:                                    0.809     0.809   0.0% |
  Subspace diag:                            22.071     0.065   0.0% |
   calc_h_matrix:                           19.966     0.962   0.1% |
    Apply H:                                19.004    18.057   1.0% |
     HMM T:                                  0.947     0.947   0.1% |
   diagonalize:                              0.087     0.087   0.0% |
   rotate_psi:                               1.953     1.953   0.1% |
  calc. matrices:                           43.573     6.164   0.3% |
   Apply H:                                 37.409    35.726   2.0% ||
    HMM T:                                   1.683     1.683   0.1% |
  diagonalize:                               0.258     0.258   0.0% |
  rotate_psi:                                3.428     3.428   0.2% |
 Density:                                  139.952     0.013   0.0% |
  Atomic density matrices:                   0.317     0.317   0.0% |
  Mix:                                     126.829   126.829   7.1% |--|
  Multipole moments:                         0.072     0.072   0.0% |
  Pseudo density:                           12.721    12.702   0.7% |
   Symmetrize density:                       0.018     0.018   0.0% |
 Hamiltonian:                             1430.861     2.846   0.2% |
  Atomic:                                   61.290     0.334   0.0% |
   XC Correction:                           60.957    60.957   3.4% ||
  Calculate atomic Hamiltonians:           100.746   100.746   5.7% |-|
  Communicate:                               0.005     0.005   0.0% |
  Poisson:                                   4.587     4.587   0.3% |
  XC 3D grid:                             1261.386    17.952   1.0% |
   van der Waals:                         1243.434    47.215   2.7% ||
    libvdwxc nonlocal:                     891.339   891.339  50.1% |-------------------|
    redistribute:                           43.476    43.476   2.4% ||
    semilocal:                             261.403   261.403  14.7% |-----|
 Orthonormalize:                             0.246     0.003   0.0% |
  calc_s_matrix:                             0.024     0.024   0.0% |
  inverse-cholesky:                          0.005     0.005   0.0% |
  projections:                               0.166     0.166   0.0% |
  rotate_psi_s:                              0.048     0.048   0.0% |
Set symmetry:                                0.002     0.002   0.0% |
Other:                                      12.266    12.266   0.7% |
-------------------------------------------------------------------
Total:                                              1778.050 100.0%

Memory usage: 1019.47 MiB
Date: Wed Feb 12 20:49:56 2020
