
  ___ ___ ___ _ _ _  
 |   |   |_  | | | | 
 | | | | | . | | | | 
 |__ |  _|___|_____|  19.8.1
 |___|_|             

User:   ericlin@hebbe04-6
Date:   Wed Feb 12 22:12:29 2020
Arch:   x86_64
Pid:    8906
Python: 3.7.2
gpaw:   /apps/Hebbe7/software/MPI/GCC/8.2.0-2.31.1/OpenMPI/3.1.3/GPAW/19.8.1-Python-3.7.2-libvdwxc/lib/python3.7/site-packages/gpaw
_gpaw:  /apps/Hebbe7/software/MPI/GCC/8.2.0-2.31.1/OpenMPI/3.1.3/GPAW/19.8.1-Python-3.7.2-libvdwxc/bin/
        gpaw-python
ase:    /apps/Hebbe7/software/MPI/GCC/8.2.0-2.31.1/OpenMPI/3.1.3/ASE/3.18.0-Python-3.7.2/lib/python3.7/site-packages/ase (version 3.18.0)
numpy:  /apps/Hebbe7/software/MPI/GCC/8.2.0-2.31.1/OpenMPI/3.1.3/SciPy-bundle/2019.03/lib/python3.7/site-packages/numpy (version 1.16.2)
scipy:  /apps/Hebbe7/software/MPI/GCC/8.2.0-2.31.1/OpenMPI/3.1.3/SciPy-bundle/2019.03/lib/python3.7/site-packages/scipy (version 1.2.1)
libxc:  4.3.4
units:  Angstrom and eV
cores:  1

Input parameters:
  h: 0.25
  mode: {ecut: 500.0,
         gammacentered: False,
         name: pw}
  nbands: 10
  occupations: {name: fermi-dirac,
                width: 0.05}
  setups: {Na: 1}
  xc: vdW-DF-cx

System changes: positions, numbers, cell, pbc, initial_charges, initial_magmoms 

Initialize ...

Na-setup:
  name: Sodium
  id: 8dbce52902f3add137ce7d12431c9cac
  Z: 11
  valence: 1
  core: 10
  charge: 0.0
  file: /apps/Common/Core/GPAW-setups/0.9.20000/Na.1.PBE.gz
  compensation charges: gauss, rc=0.43, lmax=2
  cutoffs: 2.36(filt), 3.60(core),
  valence states:
                energy  radius
    3s(1.00)    -2.744   1.349
    3p(0.00)    -0.743   1.349
    *s          24.468   1.349

  Using partial waves for Na as LCAO basis

Reference energy: -26511.662975

Spin-paired calculation

Occupation numbers:
  Fermi-Dirac: width=0.0500 eV

Convergence criteria:
  Maximum total energy change: 0.0005 eV / electron
  Maximum integral of absolute density change: 0.0001 electrons
  Maximum integral of absolute eigenstate change: 4e-08 eV^2
  Maximum number of iterations: 333

Symmetries present (total): 1

  ( 1  0  0)
  ( 0  1  0)
  ( 0  0  1)

1 k-point (Gamma)
1 k-point in the irreducible part of the Brillouin zone
       k-points in crystal coordinates                weights
   0:     0.00000000    0.00000000    0.00000000          1/1

Wave functions: Plane wave expansion
  Cutoff energy: 500.000 eV
  Number of coefficients: 103959 (reduced to 51980)
  Pulay-stress correction: 0.000000 eV/Ang^3 (de/decut=0.000000)
  Using FFTW library
  ScaLapack parameters: grid=1x1, blocksize=None
  Wavefunction extrapolation:
    Improved wavefunction reuse through dual PAW basis 

Eigensolver
   Davidson(niter=2, smin=None, normalize=True) 

Densities:
  Coarse grid: 64*64*64 grid
  Fine grid: 128*128*128 grid
  Total Charge: 0.000000 

Density mixing:
  Method: separate
  Backend: pulay
  Linear mixing parameter: 0.05
  Mixing with 5 old densities
  Damping of long wave oscillations: 50 

Hamiltonian:
  XC and Coulomb potentials evaluated on a 128*128*128 grid
  Using the vdW-DF-cx Exchange-Correlation functional
 

XC parameters: vdW-DF-cx with libvdwxc
  Mode: serial
  Semilocal: GGA_X_LV_RPW86+LDA_C_PW with 2 nearest neighbor stencil
  Local blocksize: 128 x 128 x 128
  PAW datasets: PBE

Memory estimate:
  Process memory now: 1019.48 MiB
  Calculator: 186.85 MiB
    Density: 123.30 MiB
      Arrays: 52.00 MiB
      Localized functions: 51.30 MiB
      Mixer: 20.00 MiB
    Hamiltonian: 35.05 MiB
      Arrays: 34.00 MiB
      XC: 0.00 MiB
      Poisson: 0.00 MiB
      vbar: 1.05 MiB
    Wavefunctions: 28.50 MiB
      Arrays psit_nG: 7.93 MiB
      Eigensolver: 11.91 MiB
      Projections: 0.00 MiB
      Projectors: 2.78 MiB
      PW-descriptor: 5.89 MiB

Total number of cores used: 1

Number of atoms: 6
Number of atomic orbitals: 24
Number of bands in calculation: 10
Bands to converge: occupied states only
Number of valence electrons: 6

... initialized

Initializing position-dependent things.

Density initialized from atomic densities
Creating initial wave functions:
  10 bands from LCAO basis set

           .--------------------------------------.  
          /|                                      |  
         / |                                      |  
        /  |                                      |  
       /   |                                      |  
      /    |                                      |  
     /     |                                      |  
    /      |                                      |  
   /       |                                      |  
  /        |                                      |  
 *         |           Na                         |  
 |         |                                      |  
 |         |                Na                    |  
 |         |                                      |  
 |         |            Na                        |  
 |         |                    Na                |  
 |         |                                      |  
 |         |                Na                    |  
 |         |                                      |  
 |         |             Na                       |  
 |         .--------------------------------------.  
 |        /                                      /   
 |       /                                      /    
 |      /                                      /     
 |     /                                      /      
 |    /                                      /       
 |   /                                      /        
 |  /                                      /         
 | /                                      /          
 |/                                      /           
 *--------------------------------------*            

Positions:
   0 Na    11.424955    5.046215    9.661160    ( 0.0000,  0.0000,  0.0000)
   1 Na     9.091214    7.135542   10.719357    ( 0.0000,  0.0000,  0.0000)
   2 Na     6.710298    9.263471   11.516303    ( 0.0000,  0.0000,  0.0000)
   3 Na     7.680133    8.011559    5.125248    ( 0.0000,  0.0000,  0.0000)
   4 Na     9.624253    6.463545    7.292195    ( 0.0000,  0.0000,  0.0000)
   5 Na     7.055205    8.690646    8.283979    ( 0.0000,  0.0000,  0.0000)

Unit cell:
           periodic     x           y           z      points  spacing
  1. axis:    no    16.000000    0.000000    0.000000    64     0.2500
  2. axis:    no     0.000000   16.000000    0.000000    64     0.2500
  3. axis:    no     0.000000    0.000000   16.000000    64     0.2500

  Lengths:  16.000000  16.000000  16.000000
  Angles:   90.000000  90.000000  90.000000

Effective grid spacing dv^(1/3) = 0.2500

                     log10-error:    total        iterations:
           time      wfs    density  energy       fermi  poisson
iter:   1  22:12:38  +0.19   +inf    17.505300    2             
iter:   2  22:12:45  -1.37  -0.53    17.500595    2             
iter:   3  22:12:51  -1.90  -0.54    17.523784    4             
iter:   4  22:12:57  -2.47  -0.77    17.511129    2             
iter:   5  22:13:03  -2.29  -0.85    17.496135    4             
iter:   6  22:13:10  -3.21  -1.54    17.497593    3             
iter:   7  22:13:16  -3.77  -1.83    17.496871    2             
iter:   8  22:13:22  -3.82  -1.75    17.497419    2             
iter:   9  22:13:29  -4.44  -2.26    17.497335    2             
iter:  10  22:13:35  -5.15  -2.34    17.497302    1             
iter:  11  22:13:41  -5.44  -2.61    17.497263    2             
iter:  12  22:13:48  -6.30  -2.71    17.497264    1             
iter:  13  22:13:54  -6.48  -2.74    17.497263    1             
iter:  14  22:14:00  -6.84  -2.85    17.497261    1             
iter:  15  22:14:06  -7.41  -2.95    17.497260    1             
iter:  16  22:14:13  -6.55  -3.00    17.497257    1             
iter:  17  22:14:19  -6.84  -3.21    17.497260    1             
iter:  18  22:14:25  -6.77  -3.40    17.497261    1             
iter:  19  22:14:31  -7.65  -3.76    17.497261    1             
iter:  20  22:14:38  -8.12  -3.79    17.497261    1             
iter:  21  22:14:44  -8.80  -3.85    17.497261    1             
iter:  22  22:14:51  -8.26  -3.86    17.497260    1             
iter:  23  22:14:56  -8.63  -4.16    17.497260    1             

Converged after 23 iterations.

Dipole moment: (0.023427, -0.011803, -0.009869) |e|*Ang

Energy contributions relative to reference atoms: (reference = -26511.662975)

Kinetic:         +7.826762
Potential:       -7.412156
External:        +0.000000
XC:             +17.079689
Entropy (-ST):   -0.000031
Local:           +0.002980
--------------------------
Free energy:    +17.497245
Extrapolated:   +17.497260

Non-local vdW-DF-cx correlation energy: 2.003510
Semilocal GGA_X_LV_RPW86+LDA_C_PW energy: -52.764869
(Not including atomic contributions)
Fermi level: -2.17307

 Band  Eigenvalues  Occupancy
    0     -3.75544    2.00000
    1     -2.77510    1.99999
    2     -2.77231    1.99999
    3     -1.60342    0.00002
    4     -1.45353    0.00000
    5     -1.41613    0.00000
    6     -1.31296    0.00000
    7     -0.68822    0.00000
    8     -0.63523    0.00000
    9     -0.55991    0.00000

Gap: 1.169 eV
Transition (v -> c):
  (s=0, k=0, n=2, [0.00, 0.00, 0.00]) -> (s=0, k=0, n=3, [0.00, 0.00, 0.00])
System changes: positions 

Initializing position-dependent things.

Density initialized from wave functions
           .--------------------------------------.  
          /|                                      |  
         / |                                      |  
        /  |                                      |  
       /   |                                      |  
      /    |                                      |  
     /     |                                      |  
    /      |                                      |  
   /       |                                      |  
  /        |                                      |  
 *         |                                      |  
 |         |          Na                          |  
 |         |                                      |  
 |         |       Na      Na                     |  
 |         |                Na                    |  
 |         |                                      |  
 |         |                                      |  
 |         |             Na   Na                  |  
 |         |                                      |  
 |         |                                      |  
 |         .--------------------------------------.  
 |        /                                      /   
 |       /                                      /    
 |      /                                      /     
 |     /                                      /      
 |    /                                      /       
 |   /                                      /        
 |  /                                      /         
 | /                                      /          
 |/                                      /           
 *--------------------------------------*            

Positions:
   0 Na     8.210231    9.489933    8.656516    ( 0.0000,  0.0000,  0.0000)
   1 Na     6.417931    8.101846   10.968460    ( 0.0000,  0.0000,  0.0000)
   2 Na     5.009862    9.947279    8.321395    ( 0.0000,  0.0000,  0.0000)
   3 Na     7.211492    9.790525    5.577356    ( 0.0000,  0.0000,  0.0000)
   4 Na     9.992557    7.848605    6.505352    ( 0.0000,  0.0000,  0.0000)
   5 Na     9.477264    6.754058    9.822530    ( 0.0000,  0.0000,  0.0000)

Unit cell:
           periodic     x           y           z      points  spacing
  1. axis:    no    16.000000    0.000000    0.000000    64     0.2500
  2. axis:    no     0.000000   16.000000    0.000000    64     0.2500
  3. axis:    no     0.000000    0.000000   16.000000    64     0.2500

  Lengths:  16.000000  16.000000  16.000000
  Angles:   90.000000  90.000000  90.000000

Effective grid spacing dv^(1/3) = 0.2500

                     log10-error:    total        iterations:
           time      wfs    density  energy       fermi  poisson
iter:   1  22:15:04  +0.34   +inf    15.649000    25            
iter:   2  22:15:10  -0.58  -0.10    15.832521    2             
iter:   3  22:15:17  -1.26  -0.13    16.763249    6             
iter:   4  22:15:23  -1.19  -0.25    17.329771    10            
iter:   5  22:15:29  -2.36  -0.49    17.481580    3             
iter:   6  22:15:35  -2.24  -0.57    17.529147    4             
iter:   7  22:15:42  -2.39  -0.85    17.479598    4             
iter:   8  22:15:48  -2.56  -1.00    17.482784    4             
iter:   9  22:15:54  -3.40  -1.28    17.478905    2             
iter:  10  22:16:00  -3.17  -1.40    17.470760    3             
iter:  11  22:16:07  -3.66  -1.55    17.473425    3             
iter:  12  22:16:13  -4.62  -1.89    17.473421    2             
iter:  13  22:16:19  -4.50  -1.93    17.473002    2             
iter:  14  22:16:26  -5.14  -2.12    17.473062    2             
iter:  15  22:16:32  -5.31  -2.26    17.473064    2             
iter:  16  22:16:38  -5.94  -2.33    17.473031    2             
iter:  17  22:16:45  -5.04  -2.39    17.472871    1             
iter:  18  22:16:51  -6.18  -2.82    17.472869    1             
iter:  19  22:16:57  -6.11  -2.92    17.472866    1             
iter:  20  22:17:03  -7.55  -3.22    17.472866    1             
iter:  21  22:17:10  -7.26  -3.25    17.472865    1             
iter:  22  22:17:16  -8.30  -3.39    17.472865    1             
iter:  23  22:17:22  -7.53  -3.42    17.472866    1             
iter:  24  22:17:28  -8.46  -3.65    17.472866    1             
iter:  25  22:17:34  -8.67  -3.67    17.472866    1             
iter:  26  22:17:41  -8.97  -3.70    17.472866    1             
iter:  27  22:17:47  -7.92  -3.72    17.472866    1             
iter:  28  22:17:53  -8.29  -3.94    17.472866    1             
iter:  29  22:18:00  -9.68  -4.04    17.472866    1             

Converged after 29 iterations.

Dipole moment: (-0.079184, -0.121695, -0.053041) |e|*Ang

Energy contributions relative to reference atoms: (reference = -26511.662975)

Kinetic:         +8.027094
Potential:       -7.409448
External:        +0.000000
XC:             +16.853967
Entropy (-ST):   -0.000063
Local:           +0.001284
--------------------------
Free energy:    +17.472834
Extrapolated:   +17.472866

Non-local vdW-DF-cx correlation energy: 1.957691
Semilocal GGA_X_LV_RPW86+LDA_C_PW energy: -52.876431
(Not including atomic contributions)
Fermi level: -2.14931

 Band  Eigenvalues  Occupancy
    0     -3.86433    2.00000
    1     -2.71562    1.99998
    2     -2.70778    1.99997
    3     -1.61869    0.00005
    4     -1.45447    0.00000
    5     -1.43277    0.00000
    6     -1.26393    0.00000
    7     -0.72335    0.00000
    8     -0.69162    0.00000
    9     -0.43980    0.00000

Gap: 1.089 eV
Transition (v -> c):
  (s=0, k=0, n=2, [0.00, 0.00, 0.00]) -> (s=0, k=0, n=3, [0.00, 0.00, 0.00])
System changes: positions 

Initializing position-dependent things.

Density initialized from wave functions
           .--------------------------------------.  
          /|                                      |  
         / |                                      |  
        /  |                                      |  
       /   |                                      |  
      /    |                                      |  
     /     |                                      |  
    /      |                                      |  
   /       |                                      |  
  /        |                                      |  
 *         |           Na                         |  
 |         |                                      |  
 |         |                Na                    |  
 |         |                                      |  
 |         |            Na                        |  
 |         |                    Na                |  
 |         |                                      |  
 |         |                Na                    |  
 |         |                                      |  
 |         |             Na                       |  
 |         .--------------------------------------.  
 |        /                                      /   
 |       /                                      /    
 |      /                                      /     
 |     /                                      /      
 |    /                                      /       
 |   /                                      /        
 |  /                                      /         
 | /                                      /          
 |/                                      /           
 *--------------------------------------*            

Positions:
   0 Na    11.424955    5.046215    9.661160    ( 0.0000,  0.0000,  0.0000)
   1 Na     9.091214    7.135542   10.719357    ( 0.0000,  0.0000,  0.0000)
   2 Na     6.710298    9.263471   11.516303    ( 0.0000,  0.0000,  0.0000)
   3 Na     7.680133    8.011559    5.125248    ( 0.0000,  0.0000,  0.0000)
   4 Na     9.624253    6.463545    7.292195    ( 0.0000,  0.0000,  0.0000)
   5 Na     7.055205    8.690646    8.283979    ( 0.0000,  0.0000,  0.0000)

Unit cell:
           periodic     x           y           z      points  spacing
  1. axis:    no    16.000000    0.000000    0.000000    64     0.2500
  2. axis:    no     0.000000   16.000000    0.000000    64     0.2500
  3. axis:    no     0.000000    0.000000   16.000000    64     0.2500

  Lengths:  16.000000  16.000000  16.000000
  Angles:   90.000000  90.000000  90.000000

Effective grid spacing dv^(1/3) = 0.2500

                     log10-error:    total        iterations:
           time      wfs    density  energy       fermi  poisson
iter:   1  22:18:07  +0.57   +inf    12.007263    26            
iter:   2  22:18:13  -0.32  +0.03    12.783268    5             
iter:   3  22:18:19  -1.06  +0.02    13.712561    5             
iter:   4  22:18:26  -0.86  -0.02    17.432931    19            
iter:   5  22:18:32  -1.90  -0.46    17.481815    3             
iter:   6  22:18:38  -1.80  -0.50    17.551912    8             
iter:   7  22:18:45  -2.21  -0.76    17.445063    5             
iter:   8  22:18:51  -2.45  -0.78    17.514626    5             
iter:   9  22:18:57  -3.23  -1.17    17.504453    3             
iter:  10  22:19:04  -3.42  -1.24    17.500385    2             
iter:  11  22:19:10  -3.21  -1.38    17.497717    3             
iter:  12  22:19:16  -4.04  -1.60    17.498479    3             
iter:  13  22:19:22  -4.97  -1.84    17.498292    1             
iter:  14  22:19:29  -3.93  -1.87    17.497148    2             
iter:  15  22:19:35  -5.25  -2.16    17.497229    2             
iter:  16  22:19:41  -5.59  -2.26    17.497258    2             
iter:  17  22:19:48  -5.04  -2.36    17.497247    2             
iter:  18  22:19:54  -5.46  -2.51    17.497263    2             
iter:  19  22:20:01  -6.59  -2.94    17.497263    1             
iter:  20  22:20:07  -7.34  -3.05    17.497263    1             
iter:  21  22:20:13  -6.76  -3.10    17.497262    1             
iter:  22  22:20:19  -7.95  -3.33    17.497262    1             
iter:  23  22:20:26  -8.14  -3.38    17.497262    1             
iter:  24  22:20:32  -7.36  -3.43    17.497261    1             
iter:  25  22:20:38  -7.71  -3.65    17.497261    1             
iter:  26  22:20:44  -8.96  -3.86    17.497261    1             
iter:  27  22:20:51  -7.87  -3.88    17.497260    1             
iter:  28  22:20:57  -8.50  -4.20    17.497260    1             

Converged after 28 iterations.

Dipole moment: (0.023418, -0.011736, -0.009718) |e|*Ang

Energy contributions relative to reference atoms: (reference = -26511.662975)

Kinetic:         +7.825939
Potential:       -7.411302
External:        +0.000000
XC:             +17.079620
Entropy (-ST):   -0.000031
Local:           +0.003019
--------------------------
Free energy:    +17.497245
Extrapolated:   +17.497260

Non-local vdW-DF-cx correlation energy: 2.003514
Semilocal GGA_X_LV_RPW86+LDA_C_PW energy: -52.764964
(Not including atomic contributions)
Fermi level: -2.17305

 Band  Eigenvalues  Occupancy
    0     -3.75544    2.00000
    1     -2.77510    1.99999
    2     -2.77228    1.99999
    3     -1.60341    0.00002
    4     -1.45351    0.00000
    5     -1.41609    0.00000
    6     -1.31298    0.00000
    7     -0.68818    0.00000
    8     -0.63520    0.00000
    9     -0.57140    0.00000

Gap: 1.169 eV
Transition (v -> c):
  (s=0, k=0, n=2, [0.00, 0.00, 0.00]) -> (s=0, k=0, n=3, [0.00, 0.00, 0.00])

Forces in eV/Ang:
  0 Na    0.15754   -0.13350    0.05393
  1 Na    0.03261   -0.02169    0.09817
  2 Na   -0.11064    0.10812    0.15569
  3 Na   -0.05168    0.03244   -0.20962
  4 Na    0.05115   -0.04859   -0.07701
  5 Na   -0.07900    0.06323   -0.02133

System changes: positions 

Initializing position-dependent things.

Density initialized from wave functions
           .--------------------------------------.  
          /|                                      |  
         / |                                      |  
        /  |                                      |  
       /   |                                      |  
      /    |                                      |  
     /     |                                      |  
    /      |                                      |  
   /       |                                      |  
  /        |                                      |  
 *         |           Na                         |  
 |         |                                      |  
 |         |                Na                    |  
 |         |                                      |  
 |         |           Na                         |  
 |         |                    Na                |  
 |         |                                      |  
 |         |                 Na                   |  
 |         |                                      |  
 |         |             Na                       |  
 |         .--------------------------------------.  
 |        /                                      /   
 |       /                                      /    
 |      /                                      /     
 |     /                                      /      
 |    /                                      /       
 |   /                                      /        
 |  /                                      /         
 | /                                      /          
 |/                                      /           
 *--------------------------------------*            

Positions:
   0 Na    11.575955    4.918255    9.712850    ( 0.0000,  0.0000,  0.0000)
   1 Na     9.122468    7.114754   10.813454    ( 0.0000,  0.0000,  0.0000)
   2 Na     6.604252    9.367101   11.665531    ( 0.0000,  0.0000,  0.0000)
   3 Na     7.630597    8.042649    4.924328    ( 0.0000,  0.0000,  0.0000)
   4 Na     9.673285    6.416969    7.218379    ( 0.0000,  0.0000,  0.0000)
   5 Na     6.979479    8.751251    8.263538    ( 0.0000,  0.0000,  0.0000)

Unit cell:
           periodic     x           y           z      points  spacing
  1. axis:    no    16.000000    0.000000    0.000000    64     0.2500
  2. axis:    no     0.000000   16.000000    0.000000    64     0.2500
  3. axis:    no     0.000000    0.000000   16.000000    64     0.2500

  Lengths:  16.000000  16.000000  16.000000
  Angles:   90.000000  90.000000  90.000000

Effective grid spacing dv^(1/3) = 0.2500

                     log10-error:    total        iterations:
           time      wfs    density  energy       fermi  poisson
iter:   1  22:21:06  -0.84   +inf    17.237899    4             
iter:   2  22:21:13  -2.06  -0.68    17.277869    3             
iter:   3  22:21:19  -1.86  -0.72    17.391993    6             
iter:   4  22:21:25  -3.18  -1.13    17.410766    3             
iter:   5  22:21:32  -3.90  -1.47    17.410849    2             
iter:   6  22:21:38  -3.25  -1.52    17.410246    3             
iter:   7  22:21:44  -4.38  -2.13    17.410123    2             
iter:   8  22:21:50  -4.96  -2.14    17.410015    2             
iter:   9  22:21:57  -5.10  -2.33    17.409849    2             
iter:  10  22:22:03  -5.45  -2.45    17.409920    2             
iter:  11  22:22:09  -4.49  -2.30    17.409777    2             
iter:  12  22:22:15  -6.07  -2.73    17.409795    2             
iter:  13  22:22:21  -6.91  -3.06    17.409794    1             
iter:  14  22:22:27  -6.65  -3.10    17.409791    1             
iter:  15  22:22:33  -7.19  -3.26    17.409791    1             
iter:  16  22:22:40  -7.32  -3.36    17.409791    1             
iter:  17  22:22:46  -7.68  -3.41    17.409791    1             
iter:  18  22:22:52  -7.18  -3.47    17.409792    1             
iter:  19  22:22:58  -8.29  -3.75    17.409792    1             
iter:  20  22:23:05  -8.21  -3.79    17.409791    1             
iter:  21  22:23:11  -8.66  -3.96    17.409791    1             
iter:  22  22:23:18  -8.43  -4.04    17.409791    1             

Converged after 22 iterations.

Dipole moment: (0.032119, -0.017984, -0.011430) |e|*Ang

Energy contributions relative to reference atoms: (reference = -26511.662975)

Kinetic:         +2.957856
Potential:       -3.542060
External:        +0.000000
XC:             +17.991027
Entropy (-ST):   -0.000057
Local:           +0.002998
--------------------------
Free energy:    +17.409763
Extrapolated:   +17.409791

Non-local vdW-DF-cx correlation energy: 2.007897
Semilocal GGA_X_LV_RPW86+LDA_C_PW energy: -52.127214
(Not including atomic contributions)
Fermi level: -2.17387

 Band  Eigenvalues  Occupancy
    0     -3.63033    2.00000
    1     -2.74494    1.99998
    2     -2.73875    1.99998
    3     -1.63690    0.00004
    4     -1.49020    0.00000
    5     -1.45154    0.00000
    6     -1.24148    0.00000
    7     -0.69274    0.00000
    8     -0.68406    0.00000
    9     -0.56613    0.00000

Gap: 1.102 eV
Transition (v -> c):
  (s=0, k=0, n=2, [0.00, 0.00, 0.00]) -> (s=0, k=0, n=3, [0.00, 0.00, 0.00])

Forces in eV/Ang:
  0 Na    0.02271   -0.01949    0.00668
  1 Na   -0.00465    0.00421    0.00120
  2 Na   -0.01270    0.01181    0.01802
  3 Na   -0.00727    0.00331   -0.02407
  4 Na   -0.00200    0.00092   -0.00147
  5 Na    0.00388   -0.00079   -0.00034

System changes: positions 

Initializing position-dependent things.

Density initialized from wave functions
           .--------------------------------------.  
          /|                                      |  
         / |                                      |  
        /  |                                      |  
       /   |                                      |  
      /    |                                      |  
     /     |                                      |  
    /      |                                      |  
   /       |                                      |  
  /        |           Na                         |  
 *         |                                      |  
 |         |                                      |  
 |         |                Na                    |  
 |         |                                      |  
 |         |           Na                         |  
 |         |                    Na                |  
 |         |                                      |  
 |         |                 Na                   |  
 |         |                                      |  
 |         |             Na                       |  
 |         .--------------------------------------.  
 |        /                                      /   
 |       /                                      /    
 |      /                                      /     
 |     /                                      /      
 |    /                                      /       
 |   /                                      /        
 |  /                                      /         
 | /                                      /          
 |/                                      /           
 *--------------------------------------*            

Positions:
   0 Na    11.636728    4.866272    9.731524    ( 0.0000,  0.0000,  0.0000)
   1 Na     9.116925    7.120610   10.826225    ( 0.0000,  0.0000,  0.0000)
   2 Na     6.567870    9.401493   11.717015    ( 0.0000,  0.0000,  0.0000)
   3 Na     7.611016    8.052512    4.855371    ( 0.0000,  0.0000,  0.0000)
   4 Na     9.674849    6.413584    7.207336    ( 0.0000,  0.0000,  0.0000)
   5 Na     6.978592    8.756457    8.260608    ( 0.0000,  0.0000,  0.0000)

Unit cell:
           periodic     x           y           z      points  spacing
  1. axis:    no    16.000000    0.000000    0.000000    64     0.2500
  2. axis:    no     0.000000   16.000000    0.000000    64     0.2500
  3. axis:    no     0.000000    0.000000   16.000000    64     0.2500

  Lengths:  16.000000  16.000000  16.000000
  Angles:   90.000000  90.000000  90.000000

Effective grid spacing dv^(1/3) = 0.2500

                     log10-error:    total        iterations:
           time      wfs    density  energy       fermi  poisson
iter:   1  22:23:27  -1.89   +inf    17.398892    3             
iter:   2  22:23:33  -3.10  -1.26    17.401669    2             
iter:   3  22:23:39  -3.10  -1.31    17.409813    3             
iter:   4  22:23:46  -4.42  -1.83    17.410278    2             
iter:   5  22:23:52  -4.81  -2.00    17.410273    2             
iter:   6  22:23:58  -4.44  -2.11    17.410281    2             
iter:   7  22:24:04  -5.19  -2.52    17.410265    2             
iter:   8  22:24:10  -5.86  -2.74    17.410251    1             
iter:   9  22:24:17  -6.11  -2.89    17.410245    2             
iter:  10  22:24:23  -5.91  -3.01    17.410239    1             
iter:  11  22:24:29  -7.19  -3.50    17.410239    1             
iter:  12  22:24:36  -7.54  -3.54    17.410239    1             
iter:  13  22:24:42  -8.33  -3.69    17.410239    1             
iter:  14  22:24:48  -8.39  -3.72    17.410239    1             
iter:  15  22:24:55  -7.95  -3.77    17.410239    1             
iter:  16  22:25:01  -8.79  -3.95    17.410239    1             
iter:  17  22:25:07  -8.28  -3.99    17.410239    1             
iter:  18  22:25:13  -8.96  -4.36    17.410239    1             

Converged after 18 iterations.

Dipole moment: (0.029970, -0.015670, -0.013026) |e|*Ang

Energy contributions relative to reference atoms: (reference = -26511.662975)

Kinetic:         +1.686775
Potential:       -2.515213
External:        +0.000000
XC:             +18.236050
Entropy (-ST):   -0.000078
Local:           +0.002666
--------------------------
Free energy:    +17.410200
Extrapolated:   +17.410239

Non-local vdW-DF-cx correlation energy: 2.008370
Semilocal GGA_X_LV_RPW86+LDA_C_PW energy: -51.950266
(Not including atomic contributions)
Fermi level: -2.17873

 Band  Eigenvalues  Occupancy
    0     -3.60136    2.00000
    1     -2.73038    1.99997
    2     -2.72755    1.99997
    3     -1.66061    0.00006
    4     -1.49572    0.00000
    5     -1.45143    0.00000
    6     -1.22476    0.00000
    7     -0.70172    0.00000
    8     -0.69144    0.00000
    9     -0.56507    0.00000

Gap: 1.067 eV
Transition (v -> c):
  (s=0, k=0, n=2, [0.00, 0.00, 0.00]) -> (s=0, k=0, n=3, [0.00, 0.00, 0.00])

Forces in eV/Ang:
  0 Na   -0.02656    0.02243   -0.00752
  1 Na    0.00510   -0.00497   -0.01125
  2 Na    0.00967   -0.01046   -0.01929
  3 Na    0.00405   -0.00393    0.02514
  4 Na   -0.00036    0.00025    0.01205
  5 Na    0.00796   -0.00326    0.00089

System changes: positions 

Initializing position-dependent things.

Density initialized from wave functions
           .--------------------------------------.  
          /|                                      |  
         / |                                      |  
        /  |                                      |  
       /   |                                      |  
      /    |                                      |  
     /     |                                      |  
    /      |                                      |  
   /       |                                      |  
  /        |                                      |  
 *         |           Na                         |  
 |         |                                      |  
 |         |                Na                    |  
 |         |                                      |  
 |         |            Na                        |  
 |         |                    Na                |  
 |         |                                      |  
 |         |                 Na                   |  
 |         |                                      |  
 |         |             Na                       |  
 |         .--------------------------------------.  
 |        /                                      /   
 |       /                                      /    
 |      /                                      /     
 |     /                                      /      
 |    /                                      /       
 |   /                                      /        
 |  /                                      /         
 | /                                      /          
 |/                                      /           
 *--------------------------------------*            

Positions:
   0 Na    11.604154    4.893771    9.721553    ( 0.0000,  0.0000,  0.0000)
   1 Na     9.117826    7.118830   10.808428    ( 0.0000,  0.0000,  0.0000)
   2 Na     6.583516    9.385231   11.690116    ( 0.0000,  0.0000,  0.0000)
   3 Na     7.617704    8.046914    4.890897    ( 0.0000,  0.0000,  0.0000)
   4 Na     9.669903    6.418044    7.223995    ( 0.0000,  0.0000,  0.0000)
   5 Na     6.992745    8.748182    8.263122    ( 0.0000,  0.0000,  0.0000)

Unit cell:
           periodic     x           y           z      points  spacing
  1. axis:    no    16.000000    0.000000    0.000000    64     0.2500
  2. axis:    no     0.000000   16.000000    0.000000    64     0.2500
  3. axis:    no     0.000000    0.000000   16.000000    64     0.2500

  Lengths:  16.000000  16.000000  16.000000
  Angles:   90.000000  90.000000  90.000000

Effective grid spacing dv^(1/3) = 0.2500

                     log10-error:    total        iterations:
           time      wfs    density  energy       fermi  poisson
iter:   1  22:25:23  -2.36   +inf    17.403772    2             
iter:   2  22:25:29  -3.56  -1.46    17.404933    2             
iter:   3  22:25:35  -3.51  -1.52    17.408231    3             
iter:   4  22:25:42  -4.78  -2.05    17.408375    2             
iter:   5  22:25:48  -5.24  -2.20    17.408375    2             
iter:   6  22:25:54  -4.89  -2.33    17.408372    2             
iter:   7  22:26:00  -5.69  -2.70    17.408369    2             
iter:   8  22:26:07  -6.32  -2.97    17.408363    1             
iter:   9  22:26:13  -6.49  -3.10    17.408360    1             
iter:  10  22:26:19  -6.44  -3.22    17.408359    1             
iter:  11  22:26:25  -7.67  -3.68    17.408359    1             
iter:  12  22:26:32  -7.34  -3.69    17.408358    1             
iter:  13  22:26:38  -8.67  -3.94    17.408358    1             
iter:  14  22:26:44  -9.24  -4.01    17.408358    1             

Converged after 14 iterations.

Dipole moment: (0.032874, -0.018798, -0.011977) |e|*Ang

Energy contributions relative to reference atoms: (reference = -26511.662975)

Kinetic:         +2.451504
Potential:       -3.130029
External:        +0.000000
XC:             +18.083279
Entropy (-ST):   -0.000069
Local:           +0.003639
--------------------------
Free energy:    +17.408324
Extrapolated:   +17.408358

Non-local vdW-DF-cx correlation energy: 2.007778
Semilocal GGA_X_LV_RPW86+LDA_C_PW energy: -52.060357
(Not including atomic contributions)
Fermi level: -2.17726

 Band  Eigenvalues  Occupancy
    0     -3.62109    2.00000
    1     -2.73712    1.99997
    2     -2.73182    1.99997
    3     -1.65217    0.00005
    4     -1.48717    0.00000
    5     -1.44688    0.00000
    6     -1.23539    0.00000
    7     -0.69382    0.00000
    8     -0.69142    0.00000
    9     -0.56467    0.00000

Gap: 1.080 eV
Transition (v -> c):
  (s=0, k=0, n=2, [0.00, 0.00, 0.00]) -> (s=0, k=0, n=3, [0.00, 0.00, 0.00])

Forces in eV/Ang:
  0 Na    0.00011   -0.00023    0.00085
  1 Na    0.00042    0.00026    0.00601
  2 Na    0.00022   -0.00077   -0.00188
  3 Na    0.00022   -0.00172    0.00095
  4 Na    0.00135   -0.00215   -0.00574
  5 Na   -0.00230    0.00462   -0.00013

System changes: positions 

Initializing position-dependent things.

Density initialized from wave functions
           .--------------------------------------.  
          /|                                      |  
         / |                                      |  
        /  |                                      |  
       /   |                                      |  
      /    |                                      |  
     /     |                                      |  
    /      |                                      |  
   /       |                                      |  
  /        |                                      |  
 *         |                                      |  
 |         |          Na                          |  
 |         |                                      |  
 |         |       Na      Na                     |  
 |         |                Na                    |  
 |         |                                      |  
 |         |                                      |  
 |         |             Na   Na                  |  
 |         |                                      |  
 |         |                                      |  
 |         .--------------------------------------.  
 |        /                                      /   
 |       /                                      /    
 |      /                                      /     
 |     /                                      /      
 |    /                                      /       
 |   /                                      /        
 |  /                                      /         
 | /                                      /          
 |/                                      /           
 *--------------------------------------*            

Positions:
   0 Na     8.210231    9.489933    8.656516    ( 0.0000,  0.0000,  0.0000)
   1 Na     6.417931    8.101846   10.968460    ( 0.0000,  0.0000,  0.0000)
   2 Na     5.009862    9.947279    8.321395    ( 0.0000,  0.0000,  0.0000)
   3 Na     7.211492    9.790525    5.577356    ( 0.0000,  0.0000,  0.0000)
   4 Na     9.992557    7.848605    6.505352    ( 0.0000,  0.0000,  0.0000)
   5 Na     9.477264    6.754058    9.822530    ( 0.0000,  0.0000,  0.0000)

Unit cell:
           periodic     x           y           z      points  spacing
  1. axis:    no    16.000000    0.000000    0.000000    64     0.2500
  2. axis:    no     0.000000   16.000000    0.000000    64     0.2500
  3. axis:    no     0.000000    0.000000   16.000000    64     0.2500

  Lengths:  16.000000  16.000000  16.000000
  Angles:   90.000000  90.000000  90.000000

Effective grid spacing dv^(1/3) = 0.2500

                     log10-error:    total        iterations:
           time      wfs    density  energy       fermi  poisson
iter:   1  22:26:54  +0.30   +inf    16.062858    23            
iter:   2  22:27:00  -0.65  -0.15    16.175654    2             
iter:   3  22:27:06  -1.33  -0.17    16.985520    6             
iter:   4  22:27:12  -1.32  -0.31    17.387203    8             
iter:   5  22:27:18  -2.42  -0.54    17.508331    3             
iter:   6  22:27:24  -2.25  -0.62    17.519096    4             
iter:   7  22:27:31  -2.46  -0.90    17.481136    4             
iter:   8  22:27:37  -2.66  -1.05    17.480296    3             
iter:   9  22:27:43  -3.46  -1.33    17.477416    2             
iter:  10  22:27:49  -3.24  -1.45    17.471665    3             
iter:  11  22:27:56  -3.87  -1.66    17.473248    3             
iter:  12  22:28:02  -4.83  -1.96    17.473246    2             
iter:  13  22:28:08  -4.69  -1.99    17.473038    2             
iter:  14  22:28:14  -5.32  -2.18    17.473043    2             
iter:  15  22:28:21  -5.18  -2.31    17.472967    2             
iter:  16  22:28:27  -5.64  -2.40    17.472941    2             
iter:  17  22:28:33  -6.11  -2.56    17.472906    1             
iter:  18  22:28:39  -6.17  -2.66    17.472878    1             
iter:  19  22:28:46  -5.90  -2.77    17.472867    1             
iter:  20  22:28:52  -7.04  -3.22    17.472867    1             
iter:  21  22:28:58  -7.86  -3.29    17.472867    1             
iter:  22  22:29:04  -6.98  -3.33    17.472866    1             
iter:  23  22:29:11  -7.75  -3.64    17.472866    1             
iter:  24  22:29:17  -8.99  -3.72    17.472866    1             
iter:  25  22:29:23  -9.04  -3.74    17.472866    1             
iter:  26  22:29:29  -8.65  -3.76    17.472866    1             
iter:  27  22:29:36  -8.46  -3.85    17.472866    1             
iter:  28  22:29:42  -8.92  -3.93    17.472866    1             
iter:  29  22:29:48  -8.78  -4.03    17.472866    1             

Converged after 29 iterations.

Dipole moment: (-0.079127, -0.121586, -0.052990) |e|*Ang

Energy contributions relative to reference atoms: (reference = -26511.662975)

Kinetic:         +8.027272
Potential:       -7.409518
External:        +0.000000
XC:             +16.853981
Entropy (-ST):   -0.000063
Local:           +0.001162
--------------------------
Free energy:    +17.472835
Extrapolated:   +17.472866

Non-local vdW-DF-cx correlation energy: 1.957687
Semilocal GGA_X_LV_RPW86+LDA_C_PW energy: -52.876368
(Not including atomic contributions)
Fermi level: -2.14929

 Band  Eigenvalues  Occupancy
    0     -3.86429    2.00000
    1     -2.71559    1.99998
    2     -2.70776    1.99997
    3     -1.61867    0.00005
    4     -1.45446    0.00000
    5     -1.43277    0.00000
    6     -1.26391    0.00000
    7     -0.72335    0.00000
    8     -0.69162    0.00000
    9     -0.43919    0.00000

Gap: 1.089 eV
Transition (v -> c):
  (s=0, k=0, n=2, [0.00, 0.00, 0.00]) -> (s=0, k=0, n=3, [0.00, 0.00, 0.00])

Forces in eV/Ang:
  0 Na    0.10548    0.20260    0.07178
  1 Na   -0.09956   -0.06908    0.16311
  2 Na   -0.18907    0.05817   -0.01145
  3 Na   -0.05056    0.04936   -0.18505
  4 Na    0.13506   -0.08549   -0.12750
  5 Na    0.09895   -0.15517    0.08928

System changes: positions 

Initializing position-dependent things.

Density initialized from wave functions
           .--------------------------------------.  
          /|                                      |  
         / |                                      |  
        /  |                                      |  
       /   |                                      |  
      /    |                                      |  
     /     |                                      |  
    /      |                                      |  
   /       |                                      |  
  /        |                                      |  
 *         |                                      |  
 |         |         Na                           |  
 |         |                                      |  
 |         |       Na      NNa                    |  
 |         |                                      |  
 |         |                                      |  
 |         |                                      |  
 |         |             Na   Na                  |  
 |         |                                      |  
 |         |                                      |  
 |         .--------------------------------------.  
 |        /                                      /   
 |       /                                      /    
 |      /                                      /     
 |     /                                      /      
 |    /                                      /       
 |   /                                      /        
 |  /                                      /         
 | /                                      /          
 |/                                      /           
 *--------------------------------------*            

Positions:
   0 Na     8.292855    9.648631    8.712740    ( 0.0000,  0.0000,  0.0000)
   1 Na     6.339940    8.047737   11.096231    ( 0.0000,  0.0000,  0.0000)
   2 Na     4.861757    9.992844    8.312424    ( 0.0000,  0.0000,  0.0000)
   3 Na     7.171886    9.829188    5.432402    ( 0.0000,  0.0000,  0.0000)
   4 Na    10.098350    7.781636    6.405477    ( 0.0000,  0.0000,  0.0000)
   5 Na     9.554772    6.632511    9.892469    ( 0.0000,  0.0000,  0.0000)

Unit cell:
           periodic     x           y           z      points  spacing
  1. axis:    no    16.000000    0.000000    0.000000    64     0.2500
  2. axis:    no     0.000000   16.000000    0.000000    64     0.2500
  3. axis:    no     0.000000    0.000000   16.000000    64     0.2500

  Lengths:  16.000000  16.000000  16.000000
  Angles:   90.000000  90.000000  90.000000

Effective grid spacing dv^(1/3) = 0.2500

                     log10-error:    total        iterations:
           time      wfs    density  energy       fermi  poisson
iter:   1  22:29:57  -0.83   +inf    17.290381    5             
iter:   2  22:30:04  -2.12  -0.79    17.308572    3             
iter:   3  22:30:10  -1.86  -0.82    17.359515    7             
iter:   4  22:30:16  -3.05  -1.08    17.383593    4             
iter:   5  22:30:23  -3.50  -1.47    17.383700    2             
iter:   6  22:30:29  -3.18  -1.67    17.379739    2             
iter:   7  22:30:35  -4.38  -1.56    17.381487    2             
iter:   8  22:30:41  -4.13  -1.71    17.382085    2             
iter:   9  22:30:47  -4.86  -2.08    17.382103    2             
iter:  10  22:30:54  -4.75  -2.19    17.382136    2             
iter:  11  22:31:00  -5.51  -2.64    17.382122    2             
iter:  12  22:31:06  -5.96  -2.71    17.382113    2             
iter:  13  22:31:12  -5.44  -2.76    17.382080    2             
iter:  14  22:31:19  -6.58  -2.88    17.382085    2             
iter:  15  22:31:25  -7.10  -3.05    17.382086    1             
iter:  16  22:31:31  -6.87  -3.12    17.382083    1             
iter:  17  22:31:38  -6.76  -3.23    17.382083    1             
iter:  18  22:31:44  -7.33  -3.24    17.382083    1             
iter:  19  22:31:50  -7.88  -3.48    17.382083    1             
iter:  20  22:31:56  -8.35  -3.53    17.382084    1             
iter:  21  22:32:02  -8.65  -3.57    17.382084    1             
iter:  22  22:32:09  -9.16  -3.60    17.382084    1             
iter:  23  22:32:15  -7.78  -3.62    17.382083    1             
iter:  24  22:32:21  -8.34  -3.76    17.382083    1             
iter:  25  22:32:27  -7.45  -3.83    17.382083    1             
iter:  26  22:32:33  -8.68  -4.43    17.382083    1             

Converged after 26 iterations.

Dipole moment: (-0.075414, -0.105414, -0.050137) |e|*Ang

Energy contributions relative to reference atoms: (reference = -26511.662975)

Kinetic:         +2.098613
Potential:       -2.730418
External:        +0.000000
XC:             +18.012274
Entropy (-ST):   -0.000123
Local:           +0.001675
--------------------------
Free energy:    +17.382022
Extrapolated:   +17.382083

Non-local vdW-DF-cx correlation energy: 1.960950
Semilocal GGA_X_LV_RPW86+LDA_C_PW energy: -52.067846
(Not including atomic contributions)
Fermi level: -2.14301

 Band  Eigenvalues  Occupancy
    0     -3.71508    2.00000
    1     -2.67131    1.99995
    2     -2.66667    1.99994
    3     -1.64769    0.00010
    4     -1.49932    0.00001
    5     -1.47647    0.00000
    6     -1.21336    0.00000
    7     -0.75517    0.00000
    8     -0.72113    0.00000
    9     -0.45607    0.00000

Gap: 1.019 eV
Transition (v -> c):
  (s=0, k=0, n=2, [0.00, 0.00, 0.00]) -> (s=0, k=0, n=3, [0.00, 0.00, 0.00])

Forces in eV/Ang:
  0 Na   -0.00461   -0.01346   -0.00344
  1 Na    0.00587   -0.00013   -0.00839
  2 Na    0.00622    0.00059    0.00210
  3 Na    0.00264    0.00136    0.00617
  4 Na   -0.00525    0.00088    0.00726
  5 Na   -0.00481    0.01063   -0.00367

System changes: positions 

Initializing position-dependent things.

Density initialized from wave functions
           .--------------------------------------.  
          /|                                      |  
         / |                                      |  
        /  |                                      |  
       /   |                                      |  
      /    |                                      |  
     /     |                                      |  
    /      |                                      |  
   /       |                                      |  
  /        |                                      |  
 *         |           Na                         |  
 |         |                                      |  
 |         |                Na                    |  
 |         |                                      |  
 |         |            Na                        |  
 |         |                    Na                |  
 |         |                                      |  
 |         |                 Na                   |  
 |         |                                      |  
 |         |             Na                       |  
 |         .--------------------------------------.  
 |        /                                      /   
 |       /                                      /    
 |      /                                      /     
 |     /                                      /      
 |    /                                      /       
 |   /                                      /        
 |  /                                      /         
 | /                                      /          
 |/                                      /           
 *--------------------------------------*            

Positions:
   0 Na    11.604154    4.893771    9.721553    ( 0.0000,  0.0000,  0.0000)
   1 Na     9.117826    7.118830   10.808428    ( 0.0000,  0.0000,  0.0000)
   2 Na     6.583516    9.385231   11.690116    ( 0.0000,  0.0000,  0.0000)
   3 Na     7.617704    8.046914    4.890897    ( 0.0000,  0.0000,  0.0000)
   4 Na     9.669903    6.418044    7.223995    ( 0.0000,  0.0000,  0.0000)
   5 Na     6.992745    8.748182    8.263122    ( 0.0000,  0.0000,  0.0000)

Unit cell:
           periodic     x           y           z      points  spacing
  1. axis:    no    16.000000    0.000000    0.000000    64     0.2500
  2. axis:    no     0.000000   16.000000    0.000000    64     0.2500
  3. axis:    no     0.000000    0.000000   16.000000    64     0.2500

  Lengths:  16.000000  16.000000  16.000000
  Angles:   90.000000  90.000000  90.000000

Effective grid spacing dv^(1/3) = 0.2500

                     log10-error:    total        iterations:
           time      wfs    density  energy       fermi  poisson
iter:   1  22:32:43  +0.43   +inf    13.795510    29            
iter:   2  22:32:49  -0.42  -0.02    14.527675    5             
iter:   3  22:32:56  -1.14  -0.05    15.655103    6             
iter:   4  22:33:02  -1.00  -0.12    17.456885    28            
iter:   5  22:33:08  -2.08  -0.55    17.465703    2             
iter:   6  22:33:14  -2.03  -0.57    17.468674    6             
iter:   7  22:33:20  -2.42  -0.82    17.404510    4             
iter:   8  22:33:26  -2.56  -0.87    17.430606    4             
iter:   9  22:33:33  -3.19  -1.18    17.417540    3             
iter:  10  22:33:39  -3.35  -1.33    17.410118    2             
iter:  11  22:33:45  -3.81  -1.42    17.410949    3             
iter:  12  22:33:51  -3.73  -1.53    17.409155    2             
iter:  13  22:33:57  -4.73  -1.95    17.408917    2             
iter:  14  22:34:04  -4.61  -1.99    17.408563    2             
iter:  15  22:34:10  -5.43  -2.28    17.408517    2             
iter:  16  22:34:16  -5.59  -2.30    17.408487    2             
iter:  17  22:34:22  -5.55  -2.41    17.408420    1             
iter:  18  22:34:29  -6.05  -2.47    17.408414    2             
iter:  19  22:34:35  -6.80  -2.62    17.408410    1             
iter:  20  22:34:41  -6.89  -2.65    17.408408    1             
iter:  21  22:34:47  -7.00  -2.69    17.408400    1             
iter:  22  22:34:54  -6.07  -2.73    17.408368    1             
iter:  23  22:35:00  -6.91  -2.84    17.408365    1             
iter:  24  22:35:06  -6.50  -2.90    17.408358    1             
iter:  25  22:35:12  -6.92  -3.00    17.408358    1             
iter:  26  22:35:18  -7.46  -3.09    17.408358    1             
iter:  27  22:35:25  -7.11  -3.15    17.408360    1             
iter:  28  22:35:31  -7.80  -3.43    17.408359    1             
iter:  29  22:35:37  -7.44  -3.54    17.408359    1             
iter:  30  22:35:43  -8.02  -3.90    17.408359    1             
iter:  31  22:35:49  -9.16  -4.06    17.408359    1             

Converged after 31 iterations.

Dipole moment: (0.032967, -0.018865, -0.011955) |e|*Ang

Energy contributions relative to reference atoms: (reference = -26511.662975)

Kinetic:         +2.445067
Potential:       -3.123773
External:        +0.000000
XC:             +18.084490
Entropy (-ST):   -0.000069
Local:           +0.002610
--------------------------
Free energy:    +17.408324
Extrapolated:   +17.408359

Non-local vdW-DF-cx correlation energy: 2.007749
Semilocal GGA_X_LV_RPW86+LDA_C_PW energy: -52.059559
(Not including atomic contributions)
Fermi level: -2.17734

 Band  Eigenvalues  Occupancy
    0     -3.62120    2.00000
    1     -2.73727    1.99997
    2     -2.73191    1.99997
    3     -1.65222    0.00005
    4     -1.48727    0.00000
    5     -1.44700    0.00000
    6     -1.23547    0.00000
    7     -0.69382    0.00000
    8     -0.69150    0.00000
    9     -0.57980    0.00000

Gap: 1.080 eV
Transition (v -> c):
  (s=0, k=0, n=2, [0.00, 0.00, 0.00]) -> (s=0, k=0, n=3, [0.00, 0.00, 0.00])
System changes: positions 

Initializing position-dependent things.

Density initialized from wave functions
           .--------------------------------------.  
          /|                                      |  
         / |                                      |  
        /  |                                      |  
       /   |                                      |  
      /    |                                      |  
     /     |                                      |  
    /      |                                      |  
   /       |                                      |  
  /        |                                      |  
 *         |                                      |  
 |         |         Na                           |  
 |         |                                      |  
 |         |       Na      NNa                    |  
 |         |                                      |  
 |         |                                      |  
 |         |                                      |  
 |         |             Na   Na                  |  
 |         |                                      |  
 |         |                                      |  
 |         .--------------------------------------.  
 |        /                                      /   
 |       /                                      /    
 |      /                                      /     
 |     /                                      /      
 |    /                                      /       
 |   /                                      /        
 |  /                                      /         
 | /                                      /          
 |/                                      /           
 *--------------------------------------*            

Positions:
   0 Na     8.292855    9.648631    8.712740    ( 0.0000,  0.0000,  0.0000)
   1 Na     6.339940    8.047737   11.096231    ( 0.0000,  0.0000,  0.0000)
   2 Na     4.861757    9.992844    8.312424    ( 0.0000,  0.0000,  0.0000)
   3 Na     7.171886    9.829188    5.432402    ( 0.0000,  0.0000,  0.0000)
   4 Na    10.098350    7.781636    6.405477    ( 0.0000,  0.0000,  0.0000)
   5 Na     9.554772    6.632511    9.892469    ( 0.0000,  0.0000,  0.0000)

Unit cell:
           periodic     x           y           z      points  spacing
  1. axis:    no    16.000000    0.000000    0.000000    64     0.2500
  2. axis:    no     0.000000   16.000000    0.000000    64     0.2500
  3. axis:    no     0.000000    0.000000   16.000000    64     0.2500

  Lengths:  16.000000  16.000000  16.000000
  Angles:   90.000000  90.000000  90.000000

Effective grid spacing dv^(1/3) = 0.2500

                     log10-error:    total        iterations:
           time      wfs    density  energy       fermi  poisson
iter:   1  22:35:56  +0.26   +inf    16.231170    25            
iter:   2  22:36:03  -0.66  -0.16    16.307146    3             
iter:   3  22:36:09  -1.36  -0.18    16.927604    5             
iter:   4  22:36:15  -1.31  -0.30    17.293220    9             
iter:   5  22:36:21  -2.46  -0.53    17.417993    3             
iter:   6  22:36:27  -2.25  -0.61    17.427621    4             
iter:   7  22:36:34  -2.63  -0.90    17.397271    3             
iter:   8  22:36:40  -2.61  -1.04    17.390748    3             
iter:   9  22:36:46  -3.38  -1.32    17.386041    3             
iter:  10  22:36:52  -3.31  -1.44    17.381375    3             
iter:  11  22:36:58  -3.99  -1.66    17.382608    3             
iter:  12  22:37:05  -4.85  -1.87    17.382557    2             
iter:  13  22:37:11  -4.51  -1.91    17.382311    2             
iter:  14  22:37:17  -5.42  -2.11    17.382326    2             
iter:  15  22:37:23  -4.79  -2.17    17.382117    2             
iter:  16  22:37:29  -5.60  -2.49    17.382106    2             
iter:  17  22:37:35  -6.22  -2.68    17.382097    1             
iter:  18  22:37:42  -6.55  -2.79    17.382090    1             
iter:  19  22:37:48  -6.33  -2.89    17.382084    1             
iter:  20  22:37:54  -7.40  -3.14    17.382084    1             
iter:  21  22:38:00  -7.23  -3.17    17.382085    1             
iter:  22  22:38:07  -7.54  -3.27    17.382085    1             
iter:  23  22:38:13  -7.43  -3.33    17.382084    1             
iter:  24  22:38:19  -8.06  -3.51    17.382084    1             
iter:  25  22:38:25  -7.14  -3.56    17.382084    1             
iter:  26  22:38:32  -8.50  -4.02    17.382084    1             

Converged after 26 iterations.

Dipole moment: (-0.075265, -0.105555, -0.050095) |e|*Ang

Energy contributions relative to reference atoms: (reference = -26511.662975)

Kinetic:         +2.100449
Potential:       -2.732261
External:        +0.000000
XC:             +18.012283
Entropy (-ST):   -0.000123
Local:           +0.001674
--------------------------
Free energy:    +17.382022
Extrapolated:   +17.382084

Non-local vdW-DF-cx correlation energy: 1.960951
Semilocal GGA_X_LV_RPW86+LDA_C_PW energy: -52.067747
(Not including atomic contributions)
Fermi level: -2.14309

 Band  Eigenvalues  Occupancy
    0     -3.71520    2.00000
    1     -2.67140    1.99995
    2     -2.66675    1.99994
    3     -1.64777    0.00010
    4     -1.49936    0.00001
    5     -1.47655    0.00000
    6     -1.21344    0.00000
    7     -0.75521    0.00000
    8     -0.72118    0.00000
    9     -0.44704    0.00000

Gap: 1.019 eV
Transition (v -> c):
  (s=0, k=0, n=2, [0.00, 0.00, 0.00]) -> (s=0, k=0, n=3, [0.00, 0.00, 0.00])
Timing:                                      incl.     excl.
-------------------------------------------------------------------
Density initialized from wave functions:     4.170     4.170   0.3% |
 Symmetrize density:                         0.000     0.000   0.0% |
Forces:                                     13.019    13.019   0.8% |
Hamiltonian:                                53.981     0.091   0.0% |
 Atomic:                                     2.483     0.014   0.0% |
  XC Correction:                             2.470     2.470   0.2% |
 Calculate atomic Hamiltonians:              3.392     3.392   0.2% |
 Communicate:                                0.000     0.000   0.0% |
 Initialize Hamiltonian:                     0.000     0.000   0.0% |
 Poisson:                                    0.174     0.174   0.0% |
 XC 3D grid:                                47.841     0.610   0.0% |
  van der Waals:                            47.230     1.476   0.1% |
   libvdwxc nonlocal:                       33.828    33.828   2.2% ||
   redistribute:                             1.513     1.513   0.1% |
   semilocal:                               10.413    10.413   0.7% |
LCAO initialization:                         0.119     0.020   0.0% |
 LCAO eigensolver:                           0.012     0.000   0.0% |
  Calculate projections:                     0.000     0.000   0.0% |
  DenseAtomicCorrection:                     0.000     0.000   0.0% |
  Distribute overlap matrix:                 0.000     0.000   0.0% |
  Orbital Layouts:                           0.000     0.000   0.0% |
  Potential matrix:                          0.011     0.011   0.0% |
 LCAO to grid:                               0.061     0.061   0.0% |
 Set positions (LCAO WFS):                   0.026     0.004   0.0% |
  Basic WFS set positions:                   0.000     0.000   0.0% |
  Basis functions set positions:             0.000     0.000   0.0% |
  P tci:                                     0.012     0.012   0.0% |
  ST tci:                                    0.003     0.003   0.0% |
  mktci:                                     0.006     0.006   0.0% |
PWDescriptor:                                0.014     0.014   0.0% |
Redistribute:                                0.007     0.007   0.0% |
SCF-cycle:                                1479.900     0.209   0.0% |
 Davidson:                                 108.403    31.196   2.0% ||
  Apply H:                                  15.020    13.983   0.9% |
   HMM T:                                    1.037     1.037   0.1% |
  Subspace diag:                            19.267     0.045   0.0% |
   calc_h_matrix:                           16.415     1.329   0.1% |
    Apply H:                                15.086    14.013   0.9% |
     HMM T:                                  1.073     1.073   0.1% |
   diagonalize:                              0.069     0.069   0.0% |
   rotate_psi:                               2.739     2.739   0.2% |
  calc. matrices:                           38.064     8.209   0.5% |
   Apply H:                                 29.855    27.782   1.8% ||
    HMM T:                                   2.074     2.074   0.1% |
  diagonalize:                               0.211     0.211   0.0% |
  rotate_psi:                                4.645     4.645   0.3% |
 Density:                                  111.007     0.010   0.0% |
  Atomic density matrices:                   0.254     0.254   0.0% |
  Mix:                                     100.660   100.660   6.4% |--|
  Multipole moments:                         0.061     0.061   0.0% |
  Pseudo density:                           10.022    10.011   0.6% |
   Symmetrize density:                       0.011     0.011   0.0% |
 Hamiltonian:                             1259.921     2.096   0.1% |
  Atomic:                                   57.924     0.275   0.0% |
   XC Correction:                           57.648    57.648   3.7% ||
  Calculate atomic Hamiltonians:            80.336    80.336   5.1% |-|
  Communicate:                               0.004     0.004   0.0% |
  Poisson:                                   3.765     3.765   0.2% |
  XC 3D grid:                             1115.797    13.253   0.8% |
   van der Waals:                         1102.544    34.231   2.2% ||
    libvdwxc nonlocal:                     790.883   790.883  50.6% |-------------------|
    redistribute:                           34.460    34.460   2.2% ||
    semilocal:                             242.969   242.969  15.6% |-----|
 Orthonormalize:                             0.360     0.002   0.0% |
  calc_s_matrix:                             0.034     0.034   0.0% |
  inverse-cholesky:                          0.004     0.004   0.0% |
  projections:                               0.253     0.253   0.0% |
  rotate_psi_s:                              0.066     0.066   0.0% |
Set symmetry:                                0.001     0.001   0.0% |
Other:                                      11.251    11.251   0.7% |
-------------------------------------------------------------------
Total:                                              1562.463 100.0%

Memory usage: 1.02 GiB
Date: Wed Feb 12 22:38:32 2020
