
  ___ ___ ___ _ _ _  
 |   |   |_  | | | | 
 | | | | | . | | | | 
 |__ |  _|___|_____|  19.8.1
 |___|_|             

User:   ericlin@hebbe03-8
Date:   Tue Feb  4 22:36:14 2020
Arch:   x86_64
Pid:    15197
Python: 3.7.2
gpaw:   /apps/Hebbe7/software/MPI/GCC/8.2.0-2.31.1/OpenMPI/3.1.3/GPAW/19.8.1-Python-3.7.2-libvdwxc/lib/python3.7/site-packages/gpaw
_gpaw:  /apps/Hebbe7/software/MPI/GCC/8.2.0-2.31.1/OpenMPI/3.1.3/GPAW/19.8.1-Python-3.7.2-libvdwxc/bin/
        gpaw-python
ase:    /apps/Hebbe7/software/MPI/GCC/8.2.0-2.31.1/OpenMPI/3.1.3/ASE/3.18.0-Python-3.7.2/lib/python3.7/site-packages/ase (version 3.18.0)
numpy:  /apps/Hebbe7/software/MPI/GCC/8.2.0-2.31.1/OpenMPI/3.1.3/SciPy-bundle/2019.03/lib/python3.7/site-packages/numpy (version 1.16.2)
scipy:  /apps/Hebbe7/software/MPI/GCC/8.2.0-2.31.1/OpenMPI/3.1.3/SciPy-bundle/2019.03/lib/python3.7/site-packages/scipy (version 1.2.1)
libxc:  4.3.4
units:  Angstrom and eV
cores:  1

Input parameters:
  h: 0.25
  mode: {ecut: 500.0,
         gammacentered: False,
         name: pw}
  nbands: 15
  occupations: {name: fermi-dirac,
                width: 0.05}
  setups: {Na: 1}

System changes: positions, numbers, cell, pbc, initial_charges, initial_magmoms 

Initialize ...

Na-setup:
  name: Sodium
  id: fa5c50181d04022fed15b2593599c257
  Z: 11
  valence: 1
  core: 10
  charge: 0.0
  file: /apps/Common/Core/GPAW-setups/0.9.20000/Na.1.LDA.gz
  compensation charges: gauss, rc=0.43, lmax=2
  cutoffs: 2.36(filt), 3.60(core),
  valence states:
                energy  radius
    3s(1.00)    -2.819   1.349
    3p(0.00)    -0.774   1.349
    *s          24.392   1.349

  Using partial waves for Na as LCAO basis

Reference energy: -26392.251304

Spin-paired calculation

Occupation numbers:
  Fermi-Dirac: width=0.0500 eV

Convergence criteria:
  Maximum total energy change: 0.0005 eV / electron
  Maximum integral of absolute density change: 0.0001 electrons
  Maximum integral of absolute eigenstate change: 4e-08 eV^2
  Maximum number of iterations: 333

Symmetries present (total): 1

  ( 1  0  0)
  ( 0  1  0)
  ( 0  0  1)

1 k-point (Gamma)
1 k-point in the irreducible part of the Brillouin zone
       k-points in crystal coordinates                weights
   0:     0.00000000    0.00000000    0.00000000          1/1

Wave functions: Plane wave expansion
  Cutoff energy: 500.000 eV
  Number of coefficients: 103959 (reduced to 51980)
  Pulay-stress correction: 0.000000 eV/Ang^3 (de/decut=0.000000)
  Using FFTW library
  ScaLapack parameters: grid=1x1, blocksize=None
  Wavefunction extrapolation:
    Improved wavefunction reuse through dual PAW basis 

Eigensolver
   Davidson(niter=2, smin=None, normalize=True) 

Densities:
  Coarse grid: 64*64*64 grid
  Fine grid: 128*128*128 grid
  Total Charge: 0.000000 

Density mixing:
  Method: separate
  Backend: pulay
  Linear mixing parameter: 0.05
  Mixing with 5 old densities
  Damping of long wave oscillations: 50 

Hamiltonian:
  XC and Coulomb potentials evaluated on a 128*128*128 grid
  Using the LDA Exchange-Correlation functional
 

Memory estimate:
  Process memory now: 514.00 MiB
  Calculator: 194.79 MiB
    Density: 123.30 MiB
      Arrays: 52.00 MiB
      Localized functions: 51.30 MiB
      Mixer: 20.00 MiB
    Hamiltonian: 35.05 MiB
      Arrays: 34.00 MiB
      XC: 0.00 MiB
      Poisson: 0.00 MiB
      vbar: 1.05 MiB
    Wavefunctions: 36.44 MiB
      Arrays psit_nG: 11.90 MiB
      Eigensolver: 15.88 MiB
      Projections: 0.00 MiB
      Projectors: 2.78 MiB
      PW-descriptor: 5.89 MiB

Total number of cores used: 1

Number of atoms: 6
Number of atomic orbitals: 24
Number of bands in calculation: 15
Bands to converge: occupied states only
Number of valence electrons: 6

... initialized

Initializing position-dependent things.

Density initialized from atomic densities
Creating initial wave functions:
  15 bands from LCAO basis set

           .--------------------------------------.  
          /|                                      |  
         / |                                      |  
        /  |                                      |  
       /   |                                      |  
      /    |                                      |  
     /     |                                      |  
    /      |                                      |  
   /       |                                      |  
  /        |                                      |  
 *         |           Na                         |  
 |         |                                      |  
 |         |                Na                    |  
 |         |                                      |  
 |         |            Na                        |  
 |         |                    Na                |  
 |         |                                      |  
 |         |                Na                    |  
 |         |                                      |  
 |         |             Na                       |  
 |         .--------------------------------------.  
 |        /                                      /   
 |       /                                      /    
 |      /                                      /     
 |     /                                      /      
 |    /                                      /       
 |   /                                      /        
 |  /                                      /         
 | /                                      /          
 |/                                      /           
 *--------------------------------------*            

Positions:
   0 Na    11.424955    5.046215    9.661160    ( 0.0000,  0.0000,  0.0000)
   1 Na     9.091214    7.135542   10.719357    ( 0.0000,  0.0000,  0.0000)
   2 Na     6.710298    9.263471   11.516303    ( 0.0000,  0.0000,  0.0000)
   3 Na     7.680133    8.011559    5.125248    ( 0.0000,  0.0000,  0.0000)
   4 Na     9.624253    6.463545    7.292195    ( 0.0000,  0.0000,  0.0000)
   5 Na     7.055205    8.690646    8.283979    ( 0.0000,  0.0000,  0.0000)

Unit cell:
           periodic     x           y           z      points  spacing
  1. axis:    no    16.000000    0.000000    0.000000    64     0.2500
  2. axis:    no     0.000000   16.000000    0.000000    64     0.2500
  3. axis:    no     0.000000    0.000000   16.000000    64     0.2500

  Lengths:  16.000000  16.000000  16.000000
  Angles:   90.000000  90.000000  90.000000

Effective grid spacing dv^(1/3) = 0.2500

                     log10-error:    total        iterations:
           time      wfs    density  energy       fermi  poisson
iter:   1  22:36:18  +0.42   +inf    -5.392237    2             
iter:   2  22:36:20  -1.06  -0.50    -5.394917    3             
iter:   3  22:36:22  -1.64  -0.52    -5.267991    6             
iter:   4  22:36:23  -2.08  -0.78    -5.267313    3             
iter:   5  22:36:25  -2.31  -0.88    -5.266612    3             
iter:   6  22:36:27  -2.68  -1.38    -5.268693    3             
iter:   7  22:36:28  -3.12  -1.60    -5.268250    2             
iter:   8  22:36:30  -3.43  -1.70    -5.267777    3             
iter:   9  22:36:32  -3.89  -2.39    -5.267766    2             
iter:  10  22:36:34  -4.26  -2.39    -5.267783    2             
iter:  11  22:36:35  -4.68  -2.71    -5.267776    2             
iter:  12  22:36:37  -5.06  -2.74    -5.267783    2             
iter:  13  22:36:39  -5.47  -2.95    -5.267782    1             
iter:  14  22:36:41  -5.86  -3.10    -5.267783    1             
iter:  15  22:36:42  -6.23  -3.14    -5.267782    1             
iter:  16  22:36:44  -6.66  -3.26    -5.267781    1             
iter:  17  22:36:46  -7.04  -3.46    -5.267781    1             
iter:  18  22:36:48  -7.45  -3.48    -5.267781    1             
iter:  19  22:36:49  -7.84  -3.47    -5.267781    1             
iter:  20  22:36:51  -8.24  -3.50    -5.267781    1             
iter:  21  22:36:53  -8.08  -3.53    -5.267781    1             
iter:  22  22:36:55  -8.84  -4.02    -5.267781    1             

Converged after 22 iterations.

Dipole moment: (0.017396, -0.008196, -0.011434) |e|*Ang

Energy contributions relative to reference atoms: (reference = -26392.251304)

Kinetic:        +11.801254
Potential:      -10.861203
External:        +0.000000
XC:              -6.205968
Entropy (-ST):   -0.000016
Local:           -0.001856
--------------------------
Free energy:     -5.267789
Extrapolated:    -5.267781

Fermi level: -2.37554

 Band  Eigenvalues  Occupancy
    0     -4.01749    2.00000
    1     -3.01357    1.99999
    2     -3.01105    1.99999
    3     -1.76703    0.00001
    4     -1.64159    0.00000
    5     -1.62164    0.00000
    6     -1.41930    0.00000
    7     -0.66890    0.00000
    8     -0.63804    0.00000
    9     -0.61973    0.00000
   10     -0.56343    0.00000
   11     -0.46259    0.00000
   12     -0.27719    0.00000
   13     -0.06750    0.00000
   14      0.26420    0.00000

Gap: 1.244 eV
Transition (v -> c):
  (s=0, k=0, n=2, [0.00, 0.00, 0.00]) -> (s=0, k=0, n=3, [0.00, 0.00, 0.00])
System changes: positions 

Initializing position-dependent things.

Density initialized from wave functions
           .--------------------------------------.  
          /|                                      |  
         / |                                      |  
        /  |                                      |  
       /   |                                      |  
      /    |                                      |  
     /     |                                      |  
    /      |                                      |  
   /       |                                      |  
  /        |                                      |  
 *         |                                      |  
 |         |          Na                          |  
 |         |                                      |  
 |         |       Na      Na                     |  
 |         |                Na                    |  
 |         |                                      |  
 |         |                                      |  
 |         |             Na   Na                  |  
 |         |                                      |  
 |         |                                      |  
 |         .--------------------------------------.  
 |        /                                      /   
 |       /                                      /    
 |      /                                      /     
 |     /                                      /      
 |    /                                      /       
 |   /                                      /        
 |  /                                      /         
 | /                                      /          
 |/                                      /           
 *--------------------------------------*            

Positions:
   0 Na     8.210231    9.489933    8.656516    ( 0.0000,  0.0000,  0.0000)
   1 Na     6.417931    8.101846   10.968460    ( 0.0000,  0.0000,  0.0000)
   2 Na     5.009862    9.947279    8.321395    ( 0.0000,  0.0000,  0.0000)
   3 Na     7.211492    9.790525    5.577356    ( 0.0000,  0.0000,  0.0000)
   4 Na     9.992557    7.848605    6.505352    ( 0.0000,  0.0000,  0.0000)
   5 Na     9.477264    6.754058    9.822530    ( 0.0000,  0.0000,  0.0000)

Unit cell:
           periodic     x           y           z      points  spacing
  1. axis:    no    16.000000    0.000000    0.000000    64     0.2500
  2. axis:    no     0.000000   16.000000    0.000000    64     0.2500
  3. axis:    no     0.000000    0.000000   16.000000    64     0.2500

  Lengths:  16.000000  16.000000  16.000000
  Angles:   90.000000  90.000000  90.000000

Effective grid spacing dv^(1/3) = 0.2500

                     log10-error:    total        iterations:
           time      wfs    density  energy       fermi  poisson
iter:   1  22:36:57  +0.39   +inf    -8.111394    25            
iter:   2  22:36:59  -0.54  -0.06    -7.730704    4             
iter:   3  22:37:01  -1.14  -0.09    -5.590206    28            
iter:   4  22:37:02  -1.78  -0.44    -5.532752    3             
iter:   5  22:37:04  -2.09  -0.49    -5.330193    6             
iter:   6  22:37:06  -2.55  -0.86    -5.356697    4             
iter:   7  22:37:08  -2.83  -0.91    -5.323248    4             
iter:   8  22:37:09  -3.53  -1.29    -5.324602    1             
iter:   9  22:37:11  -3.90  -1.37    -5.325644    3             
iter:  10  22:37:13  -4.32  -1.66    -5.325411    2             
iter:  11  22:37:15  -4.84  -1.83    -5.325395    2             
iter:  12  22:37:17  -5.10  -1.87    -5.325337    2             
iter:  13  22:37:18  -5.25  -2.01    -5.325550    2             
iter:  14  22:37:20  -5.78  -2.17    -5.325508    2             
iter:  15  22:37:22  -6.13  -2.30    -5.325474    2             
iter:  16  22:37:24  -6.69  -2.47    -5.325472    2             
iter:  17  22:37:25  -6.36  -2.54    -5.325475    1             
iter:  18  22:37:27  -7.33  -2.94    -5.325474    1             
iter:  19  22:37:29  -7.80  -2.97    -5.325473    1             
iter:  20  22:37:30  -7.82  -3.02    -5.325474    1             
iter:  21  22:37:32  -8.37  -3.11    -5.325475    1             
iter:  22  22:37:34  -8.07  -3.17    -5.325475    1             
iter:  23  22:37:36  -8.68  -3.33    -5.325475    1             
iter:  24  22:37:37  -8.08  -3.38    -5.325475    1             
iter:  25  22:37:39  -8.93  -3.62    -5.325475    1             
iter:  26  22:37:41  -8.66  -3.68    -5.325475    1             
iter:  27  22:37:43  -9.61  -4.13    -5.325475    1             

Converged after 27 iterations.

Dipole moment: (-0.066185, -0.105388, -0.045034) |e|*Ang

Energy contributions relative to reference atoms: (reference = -26392.251304)

Kinetic:        +11.979313
Potential:      -10.845559
External:        +0.000000
XC:              -6.457596
Entropy (-ST):   -0.000035
Local:           -0.001616
--------------------------
Free energy:     -5.325493
Extrapolated:    -5.325475

Fermi level: -2.34694

 Band  Eigenvalues  Occupancy
    0     -4.11772    2.00000
    1     -2.94463    1.99999
    2     -2.93663    1.99998
    3     -1.78386    0.00003
    4     -1.63164    0.00000
    5     -1.62292    0.00000
    6     -1.33649    0.00000
    7     -0.74457    0.00000
    8     -0.73320    0.00000
    9     -0.37304    0.00000
   10     -0.34494    0.00000
   11     -0.30131    0.00000
   12     -0.27396    0.00000
   13     -0.11092    0.00000
   14      0.23976    0.00000

Gap: 1.153 eV
Transition (v -> c):
  (s=0, k=0, n=2, [0.00, 0.00, 0.00]) -> (s=0, k=0, n=3, [0.00, 0.00, 0.00])
System changes: positions 

Initializing position-dependent things.

Density initialized from wave functions
           .--------------------------------------.  
          /|                                      |  
         / |                                      |  
        /  |                                      |  
       /   |                                      |  
      /    |                                      |  
     /     |                                      |  
    /      |                                      |  
   /       |                                      |  
  /        |                                      |  
 *         |           Na                         |  
 |         |                                      |  
 |         |                Na                    |  
 |         |                                      |  
 |         |            Na                        |  
 |         |                    Na                |  
 |         |                                      |  
 |         |                Na                    |  
 |         |                                      |  
 |         |             Na                       |  
 |         .--------------------------------------.  
 |        /                                      /   
 |       /                                      /    
 |      /                                      /     
 |     /                                      /      
 |    /                                      /       
 |   /                                      /        
 |  /                                      /         
 | /                                      /          
 |/                                      /           
 *--------------------------------------*            

Positions:
   0 Na    11.424955    5.046215    9.661160    ( 0.0000,  0.0000,  0.0000)
   1 Na     9.091214    7.135542   10.719357    ( 0.0000,  0.0000,  0.0000)
   2 Na     6.710298    9.263471   11.516303    ( 0.0000,  0.0000,  0.0000)
   3 Na     7.680133    8.011559    5.125248    ( 0.0000,  0.0000,  0.0000)
   4 Na     9.624253    6.463545    7.292195    ( 0.0000,  0.0000,  0.0000)
   5 Na     7.055205    8.690646    8.283979    ( 0.0000,  0.0000,  0.0000)

Unit cell:
           periodic     x           y           z      points  spacing
  1. axis:    no    16.000000    0.000000    0.000000    64     0.2500
  2. axis:    no     0.000000   16.000000    0.000000    64     0.2500
  3. axis:    no     0.000000    0.000000   16.000000    64     0.2500

  Lengths:  16.000000  16.000000  16.000000
  Angles:   90.000000  90.000000  90.000000

Effective grid spacing dv^(1/3) = 0.2500

                     log10-error:    total        iterations:
           time      wfs    density  energy       fermi  poisson
iter:   1  22:37:45  +0.58   +inf   -11.891470    29            
iter:   2  22:37:47  -0.30  +0.07   -11.045154    5             
iter:   3  22:37:49  -1.05  +0.05    -7.712655    25            
iter:   4  22:37:51  -1.44  -0.10    -5.577232    26            
iter:   5  22:37:52  -2.11  -0.43    -5.475109    3             
iter:   6  22:37:54  -1.94  -0.48    -5.314154    10            
iter:   7  22:37:56  -2.87  -0.78    -5.302312    2             
iter:   8  22:37:58  -2.85  -0.86    -5.265313    4             
iter:   9  22:37:59  -3.72  -1.21    -5.267620    3             
iter:  10  22:38:01  -3.84  -1.31    -5.267895    2             
iter:  11  22:38:03  -4.31  -1.66    -5.267907    2             
iter:  12  22:38:05  -4.97  -1.86    -5.267886    2             
iter:  13  22:38:06  -5.39  -1.92    -5.267883    1             
iter:  14  22:38:08  -5.41  -2.00    -5.267763    2             
iter:  15  22:38:10  -6.08  -2.17    -5.267723    1             
iter:  16  22:38:12  -6.32  -2.20    -5.267703    1             
iter:  17  22:38:13  -6.01  -2.25    -5.267759    2             
iter:  18  22:38:15  -5.87  -2.41    -5.267791    2             
iter:  19  22:38:17  -6.36  -2.58    -5.267782    2             
iter:  20  22:38:19  -7.03  -3.04    -5.267782    1             
iter:  21  22:38:20  -7.61  -3.12    -5.267781    1             
iter:  22  22:38:22  -7.67  -3.34    -5.267781    1             
iter:  23  22:38:24  -8.23  -3.44    -5.267781    1             
iter:  24  22:38:26  -8.87  -3.93    -5.267781    1             
iter:  25  22:38:27  -9.37  -4.04    -5.267781    1             

Converged after 25 iterations.

Dipole moment: (0.017360, -0.008137, -0.011599) |e|*Ang

Energy contributions relative to reference atoms: (reference = -26392.251304)

Kinetic:        +11.793082
Potential:      -10.854745
External:        +0.000000
XC:              -6.205854
Entropy (-ST):   -0.000016
Local:           -0.000256
--------------------------
Free energy:     -5.267789
Extrapolated:    -5.267781

Fermi level: -2.37542

 Band  Eigenvalues  Occupancy
    0     -4.01734    2.00000
    1     -3.01342    1.99999
    2     -3.01092    1.99999
    3     -1.76692    0.00001
    4     -1.64144    0.00000
    5     -1.62152    0.00000
    6     -1.41919    0.00000
    7     -0.66879    0.00000
    8     -0.63792    0.00000
    9     -0.61964    0.00000
   10     -0.56331    0.00000
   11     -0.46247    0.00000
   12     -0.27706    0.00000
   13     -0.06747    0.00000
   14      0.26434    0.00000

Gap: 1.244 eV
Transition (v -> c):
  (s=0, k=0, n=2, [0.00, 0.00, 0.00]) -> (s=0, k=0, n=3, [0.00, 0.00, 0.00])

Forces in eV/Ang:
  0 Na   -0.00027    0.00060    0.00281
  1 Na    0.00087   -0.00222   -0.02088
  2 Na   -0.00504    0.00349    0.00055
  3 Na   -0.00150   -0.00058   -0.00376
  4 Na   -0.01161    0.00992    0.01427
  5 Na    0.01750   -0.01116    0.00700

System changes: positions 

Initializing position-dependent things.

Density initialized from wave functions
           .--------------------------------------.  
          /|                                      |  
         / |                                      |  
        /  |                                      |  
       /   |                                      |  
      /    |                                      |  
     /     |                                      |  
    /      |                                      |  
   /       |                                      |  
  /        |                                      |  
 *         |           Na                         |  
 |         |                                      |  
 |         |                Na                    |  
 |         |                                      |  
 |         |            Na                        |  
 |         |                    Na                |  
 |         |                                      |  
 |         |                Na                    |  
 |         |                                      |  
 |         |             Na                       |  
 |         .--------------------------------------.  
 |        /                                      /   
 |       /                                      /    
 |      /                                      /     
 |     /                                      /      
 |    /                                      /       
 |   /                                      /        
 |  /                                      /         
 | /                                      /          
 |/                                      /           
 *--------------------------------------*            

Positions:
   0 Na    11.422100    5.052601    9.690998    ( 0.0000,  0.0000,  0.0000)
   1 Na     9.100406    7.111932   10.497847    ( 0.0000,  0.0000,  0.0000)
   2 Na     6.656784    9.300467   11.522185    ( 0.0000,  0.0000,  0.0000)
   3 Na     7.664180    8.005435    5.085390    ( 0.0000,  0.0000,  0.0000)
   4 Na     9.501038    6.568758    7.443612    ( 0.0000,  0.0000,  0.0000)
   5 Na     7.240941    8.572217    8.358305    ( 0.0000,  0.0000,  0.0000)

Unit cell:
           periodic     x           y           z      points  spacing
  1. axis:    no    16.000000    0.000000    0.000000    64     0.2500
  2. axis:    no     0.000000   16.000000    0.000000    64     0.2500
  3. axis:    no     0.000000    0.000000   16.000000    64     0.2500

  Lengths:  16.000000  16.000000  16.000000
  Angles:   90.000000  90.000000  90.000000

Effective grid spacing dv^(1/3) = 0.2500

                     log10-error:    total        iterations:
           time      wfs    density  energy       fermi  poisson
iter:   1  22:38:31  -0.96   +inf    -5.246744    3             
iter:   2  22:38:33  -2.22  -0.85    -5.228187    2             
iter:   3  22:38:35  -2.69  -0.92    -5.177813    4             
iter:   4  22:38:37  -3.64  -1.45    -5.177999    2             
iter:   5  22:38:38  -4.09  -1.49    -5.178940    2             
iter:   6  22:38:40  -4.42  -1.79    -5.178975    2             
iter:   7  22:38:42  -4.80  -1.96    -5.179043    2             
iter:   8  22:38:43  -5.25  -2.26    -5.179052    2             
iter:   9  22:38:45  -5.52  -2.46    -5.179043    2             
iter:  10  22:38:47  -6.08  -3.04    -5.179043    1             
iter:  11  22:38:49  -6.54  -3.15    -5.179043    1             
iter:  12  22:38:50  -6.94  -3.17    -5.179043    1             
iter:  13  22:38:52  -7.33  -3.33    -5.179043    1             
iter:  14  22:38:54  -7.73  -3.45    -5.179043    1             
iter:  15  22:38:56  -8.07  -3.52    -5.179043    1             
iter:  16  22:38:58  -8.46  -3.62    -5.179043    1             
iter:  17  22:38:59  -8.67  -3.75    -5.179042    1             
iter:  18  22:39:01  -9.14  -3.92    -5.179042    1             
iter:  19  22:39:03  -9.19  -3.99    -5.179042    1             
iter:  20  22:39:04  -9.59  -4.11    -5.179042    1             

Converged after 20 iterations.

Dipole moment: (0.039715, -0.029987, -0.019898) |e|*Ang

Energy contributions relative to reference atoms: (reference = -26392.251304)

Kinetic:        +14.710215
Potential:      -13.054230
External:        +0.000000
XC:              -6.833318
Entropy (-ST):   -0.000046
Local:           -0.001686
--------------------------
Free energy:     -5.179065
Extrapolated:    -5.179042

Fermi level: -2.40312

 Band  Eigenvalues  Occupancy
    0     -4.12235    2.00000
    1     -3.00904    1.99999
    2     -2.96463    1.99997
    3     -1.85867    0.00004
    4     -1.53934    0.00000
    5     -1.52039    0.00000
    6     -1.47344    0.00000
    7     -0.66193    0.00000
    8     -0.65611    0.00000
    9     -0.58815    0.00000
   10     -0.58330    0.00000
   11     -0.38748    0.00000
   12     -0.20458    0.00000
   13     -0.07524    0.00000
   14      0.22998    0.00000

Gap: 1.106 eV
Transition (v -> c):
  (s=0, k=0, n=2, [0.00, 0.00, 0.00]) -> (s=0, k=0, n=3, [0.00, 0.00, 0.00])

Forces in eV/Ang:
  0 Na    0.03537   -0.03218   -0.01959
  1 Na   -0.02035    0.03991    0.33339
  2 Na    0.04799   -0.04323   -0.02681
  3 Na    0.00851   -0.00577    0.03761
  4 Na    0.14786   -0.14394   -0.25410
  5 Na   -0.21941    0.18510   -0.07055

System changes: positions 

Initializing position-dependent things.

Density initialized from wave functions
           .--------------------------------------.  
          /|                                      |  
         / |                                      |  
        /  |                                      |  
       /   |                                      |  
      /    |                                      |  
     /     |                                      |  
    /      |                                      |  
   /       |                                      |  
  /        |                                      |  
 *         |           Na                         |  
 |         |                                      |  
 |         |                Na                    |  
 |         |                                      |  
 |         |            Na                        |  
 |         |                    Na                |  
 |         |                                      |  
 |         |                Na                    |  
 |         |                                      |  
 |         |             Na                       |  
 |         .--------------------------------------.  
 |        /                                      /   
 |       /                                      /    
 |      /                                      /     
 |     /                                      /      
 |    /                                      /       
 |   /                                      /        
 |  /                                      /         
 | /                                      /          
 |/                                      /           
 *--------------------------------------*            

Positions:
   0 Na    11.433835    5.040315    9.672497    ( 0.0000,  0.0000,  0.0000)
   1 Na     9.090448    7.133834   10.691121    ( 0.0000,  0.0000,  0.0000)
   2 Na     6.693791    9.271891   11.511711    ( 0.0000,  0.0000,  0.0000)
   3 Na     7.673487    8.006319    5.113508    ( 0.0000,  0.0000,  0.0000)
   4 Na     9.597364    6.481245    7.303701    ( 0.0000,  0.0000,  0.0000)
   5 Na     7.096775    8.677589    8.305748    ( 0.0000,  0.0000,  0.0000)

Unit cell:
           periodic     x           y           z      points  spacing
  1. axis:    no    16.000000    0.000000    0.000000    64     0.2500
  2. axis:    no     0.000000   16.000000    0.000000    64     0.2500
  3. axis:    no     0.000000    0.000000   16.000000    64     0.2500

  Lengths:  16.000000  16.000000  16.000000
  Angles:   90.000000  90.000000  90.000000

Effective grid spacing dv^(1/3) = 0.2500

                     log10-error:    total        iterations:
           time      wfs    density  energy       fermi  poisson
iter:   1  22:39:08  -0.97   +inf    -5.353860    4             
iter:   2  22:39:10  -2.26  -0.83    -5.330549    2             
iter:   3  22:39:12  -2.70  -0.89    -5.267301    4             
iter:   4  22:39:14  -3.74  -1.46    -5.267286    2             
iter:   5  22:39:15  -4.20  -1.51    -5.267658    2             
iter:   6  22:39:17  -4.39  -1.69    -5.267754    2             
iter:   7  22:39:19  -4.50  -1.83    -5.267929    2             
iter:   8  22:39:21  -5.18  -2.46    -5.267925    2             
iter:   9  22:39:22  -5.46  -2.45    -5.267910    1             
iter:  10  22:39:24  -5.97  -3.04    -5.267910    1             
iter:  11  22:39:26  -6.40  -3.12    -5.267910    1             
iter:  12  22:39:28  -6.81  -3.16    -5.267910    1             
iter:  13  22:39:29  -7.20  -3.27    -5.267910    1             
iter:  14  22:39:31  -7.51  -3.44    -5.267910    1             
iter:  15  22:39:33  -7.94  -3.83    -5.267910    1             
iter:  16  22:39:34  -8.37  -3.90    -5.267910    1             
iter:  17  22:39:36  -8.74  -3.97    -5.267910    1             
iter:  18  22:39:38  -9.11  -4.04    -5.267910    1             

Converged after 18 iterations.

Dipole moment: (0.015525, -0.007856, -0.012264) |e|*Ang

Energy contributions relative to reference atoms: (reference = -26392.251304)

Kinetic:        +12.010698
Potential:      -11.014358
External:        +0.000000
XC:              -6.263039
Entropy (-ST):   -0.000019
Local:           -0.001201
--------------------------
Free energy:     -5.267919
Extrapolated:    -5.267910

Fermi level: -2.37985

 Band  Eigenvalues  Occupancy
    0     -4.02974    2.00000
    1     -3.00908    1.99999
    2     -3.00494    1.99999
    3     -1.78396    0.00001
    4     -1.62534    0.00000
    5     -1.60548    0.00000
    6     -1.42470    0.00000
    7     -0.66453    0.00000
    8     -0.64329    0.00000
    9     -0.61598    0.00000
   10     -0.56985    0.00000
   11     -0.45273    0.00000
   12     -0.26556    0.00000
   13     -0.06952    0.00000
   14      0.26052    0.00000

Gap: 1.221 eV
Transition (v -> c):
  (s=0, k=0, n=2, [0.00, 0.00, 0.00]) -> (s=0, k=0, n=3, [0.00, 0.00, 0.00])

Forces in eV/Ang:
  0 Na   -0.00986    0.00789   -0.00772
  1 Na    0.00330   -0.00180    0.01245
  2 Na    0.00346   -0.00298    0.00375
  3 Na   -0.00344    0.00218    0.00612
  4 Na    0.01620   -0.01419    0.00355
  5 Na   -0.00948    0.00872   -0.01821

System changes: positions 

Initializing position-dependent things.

Density initialized from wave functions
           .--------------------------------------.  
          /|                                      |  
         / |                                      |  
        /  |                                      |  
       /   |                                      |  
      /    |                                      |  
     /     |                                      |  
    /      |                                      |  
   /       |                                      |  
  /        |                                      |  
 *         |           Na                         |  
 |         |                                      |  
 |         |                Na                    |  
 |         |                                      |  
 |         |            Na                        |  
 |         |                    Na                |  
 |         |                                      |  
 |         |                Na                    |  
 |         |                                      |  
 |         |             Na                       |  
 |         .--------------------------------------.  
 |        /                                      /   
 |       /                                      /    
 |      /                                      /     
 |     /                                      /      
 |    /                                      /       
 |   /                                      /        
 |  /                                      /         
 | /                                      /          
 |/                                      /           
 *--------------------------------------*            

Positions:
   0 Na    11.412643    5.055777    9.656313    ( 0.0000,  0.0000,  0.0000)
   1 Na     9.095053    7.130085   10.682030    ( 0.0000,  0.0000,  0.0000)
   2 Na     6.714781    9.264622   11.524318    ( 0.0000,  0.0000,  0.0000)
   3 Na     7.684376    8.016563    5.127422    ( 0.0000,  0.0000,  0.0000)
   4 Na     9.618116    6.476184    7.327291    ( 0.0000,  0.0000,  0.0000)
   5 Na     7.061360    8.667608    8.280847    ( 0.0000,  0.0000,  0.0000)

Unit cell:
           periodic     x           y           z      points  spacing
  1. axis:    no    16.000000    0.000000    0.000000    64     0.2500
  2. axis:    no     0.000000   16.000000    0.000000    64     0.2500
  3. axis:    no     0.000000    0.000000   16.000000    64     0.2500

  Lengths:  16.000000  16.000000  16.000000
  Angles:   90.000000  90.000000  90.000000

Effective grid spacing dv^(1/3) = 0.2500

                     log10-error:    total        iterations:
           time      wfs    density  energy       fermi  poisson
iter:   1  22:39:42  -2.46   +inf    -5.271255    2             
iter:   2  22:39:44  -3.77  -1.56    -5.270168    1             
iter:   3  22:39:45  -4.23  -1.63    -5.267437    2             
iter:   4  22:39:47  -5.24  -2.09    -5.267422    1             
iter:   5  22:39:49  -5.39  -2.18    -5.267363    2             
iter:   6  22:39:51  -5.86  -2.47    -5.267359    1             
iter:   7  22:39:52  -5.93  -2.56    -5.267372    2             
iter:   8  22:39:54  -6.55  -2.99    -5.267374    1             
iter:   9  22:39:56  -6.78  -3.08    -5.267373    1             
iter:  10  22:39:58  -7.41  -3.62    -5.267373    1             
iter:  11  22:39:59  -7.83  -3.67    -5.267373    1             
iter:  12  22:40:01  -8.23  -3.79    -5.267373    1             
iter:  13  22:40:03  -8.69  -3.87    -5.267373    1             
iter:  14  22:40:05  -8.71  -3.92    -5.267373    1             
iter:  15  22:40:06  -9.30  -4.31    -5.267373    1             

Converged after 15 iterations.

Dipole moment: (0.027362, -0.015718, -0.013328) |e|*Ang

Energy contributions relative to reference atoms: (reference = -26392.251304)

Kinetic:        +12.279250
Potential:      -11.230560
External:        +0.000000
XC:              -6.315032
Entropy (-ST):   -0.000017
Local:           -0.001023
--------------------------
Free energy:     -5.267382
Extrapolated:    -5.267373

Fermi level: -2.37749

 Band  Eigenvalues  Occupancy
    0     -4.03370    2.00000
    1     -3.01913    1.99999
    2     -3.00157    1.99999
    3     -1.77590    0.00001
    4     -1.62438    0.00000
    5     -1.61161    0.00000
    6     -1.42729    0.00000
    7     -0.66952    0.00000
    8     -0.64006    0.00000
    9     -0.61418    0.00000
   10     -0.56122    0.00000
   11     -0.44955    0.00000
   12     -0.26511    0.00000
   13     -0.06799    0.00000
   14      0.26306    0.00000

Gap: 1.226 eV
Transition (v -> c):
  (s=0, k=0, n=2, [0.00, 0.00, 0.00]) -> (s=0, k=0, n=3, [0.00, 0.00, 0.00])

Forces in eV/Ang:
  0 Na    0.02336   -0.01946    0.00953
  1 Na   -0.01709    0.01611    0.02048
  2 Na    0.00268   -0.00475   -0.01011
  3 Na    0.00363   -0.00540   -0.00530
  4 Na   -0.01151    0.00717   -0.03191
  5 Na   -0.00104    0.00641    0.01729

System changes: positions 

Initializing position-dependent things.

Density initialized from wave functions
           .--------------------------------------.  
          /|                                      |  
         / |                                      |  
        /  |                                      |  
       /   |                                      |  
      /    |                                      |  
     /     |                                      |  
    /      |                                      |  
   /       |                                      |  
  /        |                                      |  
 *         |           Na                         |  
 |         |                                      |  
 |         |                Na                    |  
 |         |                                      |  
 |         |            Na                        |  
 |         |                    Na                |  
 |         |                                      |  
 |         |                Na                    |  
 |         |                                      |  
 |         |             Na                       |  
 |         .--------------------------------------.  
 |        /                                      /   
 |       /                                      /    
 |      /                                      /     
 |     /                                      /      
 |    /                                      /       
 |   /                                      /        
 |  /                                      /         
 | /                                      /          
 |/                                      /           
 *--------------------------------------*            

Positions:
   0 Na    11.427829    5.053881    9.687270    ( 0.0000,  0.0000,  0.0000)
   1 Na     9.131981    7.099255   10.755615    ( 0.0000,  0.0000,  0.0000)
   2 Na     6.607421    9.304124   11.495209    ( 0.0000,  0.0000,  0.0000)
   3 Na     7.601271    7.983177    5.092622    ( 0.0000,  0.0000,  0.0000)
   4 Na     9.614288    6.413533    7.274799    ( 0.0000,  0.0000,  0.0000)
   5 Na     7.200591    8.757941    8.292886    ( 0.0000,  0.0000,  0.0000)

Unit cell:
           periodic     x           y           z      points  spacing
  1. axis:    no    16.000000    0.000000    0.000000    64     0.2500
  2. axis:    no     0.000000   16.000000    0.000000    64     0.2500
  3. axis:    no     0.000000    0.000000   16.000000    64     0.2500

  Lengths:  16.000000  16.000000  16.000000
  Angles:   90.000000  90.000000  90.000000

Effective grid spacing dv^(1/3) = 0.2500

                     log10-error:    total        iterations:
           time      wfs    density  energy       fermi  poisson
iter:   1  22:40:10  -1.41   +inf    -5.274499    3             
iter:   2  22:40:12  -2.61  -1.17    -5.270987    2             
iter:   3  22:40:14  -3.23  -1.23    -5.259670    3             
iter:   4  22:40:16  -4.19  -1.76    -5.259692    2             
iter:   5  22:40:17  -4.64  -1.81    -5.260010    2             
iter:   6  22:40:19  -4.93  -2.07    -5.260106    2             
iter:   7  22:40:21  -5.28  -2.23    -5.260143    2             
iter:   8  22:40:23  -5.84  -2.59    -5.260150    1             
iter:   9  22:40:24  -6.01  -2.64    -5.260154    1             
iter:  10  22:40:26  -6.58  -3.22    -5.260154    1             
iter:  11  22:40:28  -6.98  -3.26    -5.260154    1             
iter:  12  22:40:30  -7.39  -3.42    -5.260154    1             
iter:  13  22:40:31  -7.80  -3.52    -5.260154    1             
iter:  14  22:40:33  -7.94  -3.56    -5.260154    1             
iter:  15  22:40:35  -8.52  -4.05    -5.260154    1             

Converged after 15 iterations.

Dipole moment: (0.025750, -0.029980, -0.016520) |e|*Ang

Energy contributions relative to reference atoms: (reference = -26392.251304)

Kinetic:        +11.003095
Potential:      -10.222799
External:        +0.000000
XC:              -6.039392
Entropy (-ST):   -0.000019
Local:           -0.001047
--------------------------
Free energy:     -5.260163
Extrapolated:    -5.260154

Fermi level: -2.37566

 Band  Eigenvalues  Occupancy
    0     -4.00046    2.00000
    1     -3.02083    2.00000
    2     -2.98868    1.99999
    3     -1.77780    0.00001
    4     -1.65652    0.00000
    5     -1.61363    0.00000
    6     -1.40752    0.00000
    7     -0.67563    0.00000
    8     -0.65030    0.00000
    9     -0.61681    0.00000
   10     -0.58362    0.00000
   11     -0.45524    0.00000
   12     -0.27925    0.00000
   13     -0.07145    0.00000
   14      0.26227    0.00000

Gap: 1.211 eV
Transition (v -> c):
  (s=0, k=0, n=2, [0.00, 0.00, 0.00]) -> (s=0, k=0, n=3, [0.00, 0.00, 0.00])

Forces in eV/Ang:
  0 Na    0.01619   -0.01620   -0.00881
  1 Na   -0.06970    0.05972   -0.01239
  2 Na    0.05261   -0.04081   -0.02019
  3 Na    0.02522   -0.01529    0.03433
  4 Na   -0.02913    0.02682    0.00217
  5 Na    0.00441   -0.01453    0.00493

System changes: positions 

Initializing position-dependent things.

Density initialized from wave functions
           .--------------------------------------.  
          /|                                      |  
         / |                                      |  
        /  |                                      |  
       /   |                                      |  
      /    |                                      |  
     /     |                                      |  
    /      |                                      |  
   /       |                                      |  
  /        |                                      |  
 *         |           Na                         |  
 |         |                                      |  
 |         |                Na                    |  
 |         |                                      |  
 |         |            Na                        |  
 |         |                    Na                |  
 |         |                                      |  
 |         |                Na                    |  
 |         |                                      |  
 |         |             Na                       |  
 |         .--------------------------------------.  
 |        /                                      /   
 |       /                                      /    
 |      /                                      /     
 |     /                                      /      
 |    /                                      /       
 |   /                                      /        
 |  /                                      /         
 | /                                      /          
 |/                                      /           
 *--------------------------------------*            

Positions:
   0 Na    11.424127    5.051480    9.665217    ( 0.0000,  0.0000,  0.0000)
   1 Na     9.075464    7.147453   10.721751    ( 0.0000,  0.0000,  0.0000)
   2 Na     6.679344    9.262200   11.494694    ( 0.0000,  0.0000,  0.0000)
   3 Na     7.641854    7.985234    5.131625    ( 0.0000,  0.0000,  0.0000)
   4 Na     9.603840    6.445064    7.305908    ( 0.0000,  0.0000,  0.0000)
   5 Na     7.159566    8.719786    8.279134    ( 0.0000,  0.0000,  0.0000)

Unit cell:
           periodic     x           y           z      points  spacing
  1. axis:    no    16.000000    0.000000    0.000000    64     0.2500
  2. axis:    no     0.000000   16.000000    0.000000    64     0.2500
  3. axis:    no     0.000000    0.000000   16.000000    64     0.2500

  Lengths:  16.000000  16.000000  16.000000
  Angles:   90.000000  90.000000  90.000000

Effective grid spacing dv^(1/3) = 0.2500

                     log10-error:    total        iterations:
           time      wfs    density  energy       fermi  poisson
iter:   1  22:40:39  -1.73   +inf    -5.286327    3             
iter:   2  22:40:40  -2.97  -1.21    -5.281383    2             
iter:   3  22:40:42  -3.38  -1.28    -5.267926    3             
iter:   4  22:40:44  -4.32  -1.78    -5.267884    2             
iter:   5  22:40:46  -4.71  -1.85    -5.267767    2             
iter:   6  22:40:48  -4.99  -2.15    -5.267751    1             
iter:   7  22:40:49  -5.28  -2.25    -5.267761    2             
iter:   8  22:40:51  -5.78  -2.62    -5.267769    1             
iter:   9  22:40:53  -6.01  -2.71    -5.267768    1             
iter:  10  22:40:55  -6.54  -3.23    -5.267769    1             
iter:  11  22:40:56  -6.94  -3.33    -5.267768    1             
iter:  12  22:40:58  -7.37  -3.62    -5.267768    1             
iter:  13  22:41:00  -7.79  -3.86    -5.267768    1             
iter:  14  22:41:02  -8.20  -3.91    -5.267768    1             
iter:  15  22:41:03  -8.56  -4.00    -5.267768    1             
iter:  16  22:41:05  -8.91  -4.22    -5.267768    1             

Converged after 16 iterations.

Dipole moment: (0.009745, -0.010164, -0.013345) |e|*Ang

Energy contributions relative to reference atoms: (reference = -26392.251304)

Kinetic:        +12.139100
Potential:      -11.121258
External:        +0.000000
XC:              -6.284786
Entropy (-ST):   -0.000017
Local:           -0.000815
--------------------------
Free energy:     -5.267777
Extrapolated:    -5.267768

Fermi level: -2.37747

 Band  Eigenvalues  Occupancy
    0     -4.02974    2.00000
    1     -3.01302    1.99999
    2     -3.00721    1.99999
    3     -1.77515    0.00001
    4     -1.62828    0.00000
    5     -1.61228    0.00000
    6     -1.42504    0.00000
    7     -0.66546    0.00000
    8     -0.63776    0.00000
    9     -0.61891    0.00000
   10     -0.56904    0.00000
   11     -0.44971    0.00000
   12     -0.26795    0.00000
   13     -0.06848    0.00000
   14      0.26549    0.00000

Gap: 1.232 eV
Transition (v -> c):
  (s=0, k=0, n=2, [0.00, 0.00, 0.00]) -> (s=0, k=0, n=3, [0.00, 0.00, 0.00])

Forces in eV/Ang:
  0 Na   -0.00398    0.00292    0.00702
  1 Na    0.01573   -0.01376   -0.00784
  2 Na   -0.00341    0.00594    0.00456
  3 Na    0.00581   -0.00479   -0.01202
  4 Na   -0.00054    0.00095   -0.00024
  5 Na   -0.01364    0.00881    0.00852

System changes: positions 

Initializing position-dependent things.

Density initialized from wave functions
           .--------------------------------------.  
          /|                                      |  
         / |                                      |  
        /  |                                      |  
       /   |                                      |  
      /    |                                      |  
     /     |                                      |  
    /      |                                      |  
   /       |                                      |  
  /        |                                      |  
 *         |           Na                         |  
 |         |                                      |  
 |         |                Na                    |  
 |         |                                      |  
 |         |            Na                        |  
 |         |                    Na                |  
 |         |                                      |  
 |         |                Na                    |  
 |         |                                      |  
 |         |             Na                       |  
 |         .--------------------------------------.  
 |        /                                      /   
 |       /                                      /    
 |      /                                      /     
 |     /                                      /      
 |    /                                      /       
 |   /                                      /        
 |  /                                      /         
 | /                                      /          
 |/                                      /           
 *--------------------------------------*            

Positions:
   0 Na    11.424656    5.047862    9.667296    ( 0.0000,  0.0000,  0.0000)
   1 Na     9.089070    7.136032   10.704603    ( 0.0000,  0.0000,  0.0000)
   2 Na     6.697711    9.265501   11.510766    ( 0.0000,  0.0000,  0.0000)
   3 Na     7.669295    7.999593    5.120131    ( 0.0000,  0.0000,  0.0000)
   4 Na     9.608597    6.465124    7.305461    ( 0.0000,  0.0000,  0.0000)
   5 Na     7.096167    8.696937    8.289992    ( 0.0000,  0.0000,  0.0000)

Unit cell:
           periodic     x           y           z      points  spacing
  1. axis:    no    16.000000    0.000000    0.000000    64     0.2500
  2. axis:    no     0.000000   16.000000    0.000000    64     0.2500
  3. axis:    no     0.000000    0.000000   16.000000    64     0.2500

  Lengths:  16.000000  16.000000  16.000000
  Angles:   90.000000  90.000000  90.000000

Effective grid spacing dv^(1/3) = 0.2500

                     log10-error:    total        iterations:
           time      wfs    density  energy       fermi  poisson
iter:   1  22:41:09  -2.54   +inf    -5.269085    2             
iter:   2  22:41:11  -3.80  -1.83    -5.268962    1             
iter:   3  22:41:12  -4.51  -1.87    -5.268499    2             
iter:   4  22:41:14  -5.47  -2.22    -5.268499    1             
iter:   5  22:41:16  -5.79  -2.29    -5.268527    1             
iter:   6  22:41:18  -6.16  -2.57    -5.268546    1             
iter:   7  22:41:19  -6.40  -2.70    -5.268555    1             
iter:   8  22:41:21  -7.23  -3.11    -5.268555    1             
iter:   9  22:41:23  -7.15  -3.17    -5.268555    1             
iter:  10  22:41:25  -8.07  -3.77    -5.268555    1             
iter:  11  22:41:26  -8.58  -3.80    -5.268555    1             
iter:  12  22:41:28  -8.92  -3.91    -5.268555    1             
iter:  13  22:41:30  -9.44  -4.04    -5.268555    1             

Converged after 13 iterations.

Dipole moment: (0.016757, -0.010402, -0.012000) |e|*Ang

Energy contributions relative to reference atoms: (reference = -26392.251304)

Kinetic:        +11.999397
Potential:      -11.011267
External:        +0.000000
XC:              -6.255661
Entropy (-ST):   -0.000017
Local:           -0.001016
--------------------------
Free energy:     -5.268564
Extrapolated:    -5.268555

Fermi level: -2.37767

 Band  Eigenvalues  Occupancy
    0     -4.02625    2.00000
    1     -3.01105    1.99999
    2     -3.00860    1.99999
    3     -1.77568    0.00001
    4     -1.63075    0.00000
    5     -1.61287    0.00000
    6     -1.42349    0.00000
    7     -0.66681    0.00000
    8     -0.63993    0.00000
    9     -0.61672    0.00000
   10     -0.56680    0.00000
   11     -0.45547    0.00000
   12     -0.26975    0.00000
   13     -0.06838    0.00000
   14      0.26310    0.00000

Gap: 1.233 eV
Transition (v -> c):
  (s=0, k=0, n=2, [0.00, 0.00, 0.00]) -> (s=0, k=0, n=3, [0.00, 0.00, 0.00])

Forces in eV/Ang:
  0 Na    0.00058   -0.00084    0.00096
  1 Na    0.00014    0.00006   -0.00065
  2 Na   -0.00012    0.00057    0.00186
  3 Na    0.00048   -0.00101    0.00064
  4 Na   -0.00124    0.00078    0.00002
  5 Na    0.00030    0.00013   -0.00269

System changes: positions 

Initializing position-dependent things.

Density initialized from wave functions
           .--------------------------------------.  
          /|                                      |  
         / |                                      |  
        /  |                                      |  
       /   |                                      |  
      /    |                                      |  
     /     |                                      |  
    /      |                                      |  
   /       |                                      |  
  /        |                                      |  
 *         |                                      |  
 |         |          Na                          |  
 |         |                                      |  
 |         |       Na      Na                     |  
 |         |                Na                    |  
 |         |                                      |  
 |         |                                      |  
 |         |             Na   Na                  |  
 |         |                                      |  
 |         |                                      |  
 |         .--------------------------------------.  
 |        /                                      /   
 |       /                                      /    
 |      /                                      /     
 |     /                                      /      
 |    /                                      /       
 |   /                                      /        
 |  /                                      /         
 | /                                      /          
 |/                                      /           
 *--------------------------------------*            

Positions:
   0 Na     8.210231    9.489933    8.656516    ( 0.0000,  0.0000,  0.0000)
   1 Na     6.417931    8.101846   10.968460    ( 0.0000,  0.0000,  0.0000)
   2 Na     5.009862    9.947279    8.321395    ( 0.0000,  0.0000,  0.0000)
   3 Na     7.211492    9.790525    5.577356    ( 0.0000,  0.0000,  0.0000)
   4 Na     9.992557    7.848605    6.505352    ( 0.0000,  0.0000,  0.0000)
   5 Na     9.477264    6.754058    9.822530    ( 0.0000,  0.0000,  0.0000)

Unit cell:
           periodic     x           y           z      points  spacing
  1. axis:    no    16.000000    0.000000    0.000000    64     0.2500
  2. axis:    no     0.000000   16.000000    0.000000    64     0.2500
  3. axis:    no     0.000000    0.000000   16.000000    64     0.2500

  Lengths:  16.000000  16.000000  16.000000
  Angles:   90.000000  90.000000  90.000000

Effective grid spacing dv^(1/3) = 0.2500

                     log10-error:    total        iterations:
           time      wfs    density  energy       fermi  poisson
iter:   1  22:41:34  +0.40   +inf    -8.143530    23            
iter:   2  22:41:35  -0.53  -0.06    -7.761154    4             
iter:   3  22:41:37  -1.14  -0.09    -5.594945    28            
iter:   4  22:41:39  -1.78  -0.44    -5.535210    3             
iter:   5  22:41:41  -2.09  -0.49    -5.330132    7             
iter:   6  22:41:42  -2.55  -0.86    -5.355225    4             
iter:   7  22:41:44  -2.83  -0.91    -5.322910    4             
iter:   8  22:41:46  -3.53  -1.29    -5.324621    1             
iter:   9  22:41:48  -3.90  -1.37    -5.325509    3             
iter:  10  22:41:49  -4.33  -1.66    -5.325410    2             
iter:  11  22:41:51  -4.83  -1.82    -5.325390    2             
iter:  12  22:41:53  -5.19  -1.88    -5.325344    2             
iter:  13  22:41:55  -5.26  -1.99    -5.325548    1             
iter:  14  22:41:56  -5.91  -2.17    -5.325516    2             
iter:  15  22:41:58  -5.97  -2.26    -5.325468    2             
iter:  16  22:42:00  -6.67  -2.50    -5.325469    1             
iter:  17  22:42:02  -6.40  -2.56    -5.325475    1             
iter:  18  22:42:03  -7.32  -2.93    -5.325474    1             
iter:  19  22:42:05  -7.87  -2.97    -5.325474    1             
iter:  20  22:42:07  -7.90  -3.02    -5.325474    1             
iter:  21  22:42:08  -7.76  -3.10    -5.325475    1             
iter:  22  22:42:10  -8.00  -3.30    -5.325476    1             
iter:  23  22:42:12  -8.39  -3.46    -5.325476    1             
iter:  24  22:42:14  -8.60  -3.58    -5.325476    1             
iter:  25  22:42:16  -9.16  -3.73    -5.325475    1             
iter:  26  22:42:17  -9.43  -3.80    -5.325475    1             
iter:  27  22:42:19  -9.68  -3.89    -5.325475    1             
iter:  28  22:42:21  -9.58  -3.97    -5.325475    1             
iter:  29  22:42:22 -10.21  -4.01    -5.325475    1             

Converged after 29 iterations.

Dipole moment: (-0.066279, -0.105191, -0.045120) |e|*Ang

Energy contributions relative to reference atoms: (reference = -26392.251304)

Kinetic:        +11.976774
Potential:      -10.843612
External:        +0.000000
XC:              -6.456986
Entropy (-ST):   -0.000035
Local:           -0.001635
--------------------------
Free energy:     -5.325493
Extrapolated:    -5.325475

Fermi level: -2.34706

 Band  Eigenvalues  Occupancy
    0     -4.11791    2.00000
    1     -2.94477    1.99999
    2     -2.93677    1.99998
    3     -1.78397    0.00003
    4     -1.63175    0.00000
    5     -1.62303    0.00000
    6     -1.33660    0.00000
    7     -0.74466    0.00000
    8     -0.73329    0.00000
    9     -0.37313    0.00000
   10     -0.34504    0.00000
   11     -0.30139    0.00000
   12     -0.27404    0.00000
   13     -0.11097    0.00000
   14      0.23971    0.00000

Gap: 1.153 eV
Transition (v -> c):
  (s=0, k=0, n=2, [0.00, 0.00, 0.00]) -> (s=0, k=0, n=3, [0.00, 0.00, 0.00])

Forces in eV/Ang:
  0 Na    0.00976    0.03365    0.00488
  1 Na   -0.00034   -0.00965   -0.00792
  2 Na    0.00542   -0.00667   -0.00294
  3 Na   -0.00312   -0.00521    0.00685
  4 Na   -0.00650   -0.00903    0.00192
  5 Na   -0.00513   -0.00337   -0.00287

System changes: positions 

Initializing position-dependent things.

Density initialized from wave functions
           .--------------------------------------.  
          /|                                      |  
         / |                                      |  
        /  |                                      |  
       /   |                                      |  
      /    |                                      |  
     /     |                                      |  
    /      |                                      |  
   /       |                                      |  
  /        |                                      |  
 *         |                                      |  
 |         |          Na                          |  
 |         |                                      |  
 |         |        Na     Na                     |  
 |         |                Na                    |  
 |         |                                      |  
 |         |                                      |  
 |         |             Na   Na                  |  
 |         |                                      |  
 |         |                                      |  
 |         .--------------------------------------.  
 |        /                                      /   
 |       /                                      /    
 |      /                                      /     
 |     /                                      /      
 |    /                                      /       
 |   /                                      /        
 |  /                                      /         
 | /                                      /          
 |/                                      /           
 *--------------------------------------*            

Positions:
   0 Na     8.303644    9.811978    8.703254    ( 0.0000,  0.0000,  0.0000)
   1 Na     6.414720    8.009514   10.892669    ( 0.0000,  0.0000,  0.0000)
   2 Na     5.061709    9.883460    8.293261    ( 0.0000,  0.0000,  0.0000)
   3 Na     7.181600    9.740622    5.642877    ( 0.0000,  0.0000,  0.0000)
   4 Na     9.930336    7.762180    6.523717    ( 0.0000,  0.0000,  0.0000)
   5 Na     9.428145    6.721757    9.795039    ( 0.0000,  0.0000,  0.0000)

Unit cell:
           periodic     x           y           z      points  spacing
  1. axis:    no    16.000000    0.000000    0.000000    64     0.2500
  2. axis:    no     0.000000   16.000000    0.000000    64     0.2500
  3. axis:    no     0.000000    0.000000   16.000000    64     0.2500

  Lengths:  16.000000  16.000000  16.000000
  Angles:   90.000000  90.000000  90.000000

Effective grid spacing dv^(1/3) = 0.2500

                     log10-error:    total        iterations:
           time      wfs    density  energy       fermi  poisson
iter:   1  22:42:26  -0.99   +inf    -5.384955    3             
iter:   2  22:42:28  -2.26  -0.85    -5.363155    2             
iter:   3  22:42:30  -2.74  -0.91    -5.309589    3             
iter:   4  22:42:32  -3.80  -1.33    -5.309116    2             
iter:   5  22:42:33  -4.08  -1.41    -5.308833    2             
iter:   6  22:42:35  -4.33  -1.60    -5.309162    2             
iter:   7  22:42:37  -4.64  -1.76    -5.309505    2             
iter:   8  22:42:39  -5.31  -2.25    -5.309579    1             
iter:   9  22:42:40  -5.43  -2.30    -5.309551    2             
iter:  10  22:42:42  -6.08  -2.80    -5.309553    1             
iter:  11  22:42:44  -6.51  -2.83    -5.309553    1             
iter:  12  22:42:46  -6.78  -2.89    -5.309554    1             
iter:  13  22:42:47  -7.22  -3.04    -5.309553    1             
iter:  14  22:42:49  -7.48  -3.07    -5.309552    1             
iter:  15  22:42:51  -7.80  -3.13    -5.309553    1             
iter:  16  22:42:52  -7.67  -3.23    -5.309554    1             
iter:  17  22:42:54  -8.27  -3.47    -5.309554    1             
iter:  18  22:42:56  -8.31  -3.56    -5.309554    1             
iter:  19  22:42:58  -8.89  -3.84    -5.309554    1             
iter:  20  22:42:59  -9.28  -3.89    -5.309554    1             
iter:  21  22:43:01  -9.44  -4.07    -5.309554    1             

Converged after 21 iterations.

Dipole moment: (-0.060982, -0.053693, -0.049330) |e|*Ang

Energy contributions relative to reference atoms: (reference = -26392.251304)

Kinetic:        +10.837854
Potential:       -9.918033
External:        +0.000000
XC:              -6.228059
Entropy (-ST):   -0.000131
Local:           -0.001250
--------------------------
Free energy:     -5.309619
Extrapolated:    -5.309554

Fermi level: -2.40178

 Band  Eigenvalues  Occupancy
    0     -4.12415    2.00000
    1     -2.93573    1.99995
    2     -2.91332    1.99993
    3     -1.91476    0.00012
    4     -1.59888    0.00000
    5     -1.59741    0.00000
    6     -1.30711    0.00000
    7     -0.81145    0.00000
    8     -0.78828    0.00000
    9     -0.32292    0.00000
   10     -0.31066    0.00000
   11     -0.25414    0.00000
   12     -0.21762    0.00000
   13     -0.21171    0.00000
   14      0.19246    0.00000

Gap: 0.999 eV
Transition (v -> c):
  (s=0, k=0, n=2, [0.00, 0.00, 0.00]) -> (s=0, k=0, n=3, [0.00, 0.00, 0.00])

Forces in eV/Ang:
  0 Na    0.01247   -0.14351    0.01895
  1 Na    0.03449    0.03084   -0.03265
  2 Na   -0.02161    0.00512    0.03022
  3 Na    0.02930   -0.00195   -0.02916
  4 Na   -0.02921    0.03886    0.04177
  5 Na   -0.02548    0.07052   -0.02920

System changes: positions 

Initializing position-dependent things.

Density initialized from wave functions
           .--------------------------------------.  
          /|                                      |  
         / |                                      |  
        /  |                                      |  
       /   |                                      |  
      /    |                                      |  
     /     |                                      |  
    /      |                                      |  
   /       |                                      |  
  /        |                                      |  
 *         |                                      |  
 |         |                                      |  
 |         |          Na                          |  
 |         |       Na       Na                    |  
 |         |                Na                    |  
 |         |                                      |  
 |         |                                      |  
 |         |             Na   Na                  |  
 |         |                                      |  
 |         |                                      |  
 |         .--------------------------------------.  
 |        /                                      /   
 |       /                                      /    
 |      /                                      /     
 |     /                                      /      
 |    /                                      /       
 |   /                                      /        
 |  /                                      /         
 | /                                      /          
 |/                                      /           
 *--------------------------------------*            

Positions:
   0 Na     8.398139    9.663278    8.782882    ( 0.0000,  0.0000,  0.0000)
   1 Na     6.500306    8.025915   10.758673    ( 0.0000,  0.0000,  0.0000)
   2 Na     5.041560    9.853606    8.351229    ( 0.0000,  0.0000,  0.0000)
   3 Na     7.236045    9.702134    5.612730    ( 0.0000,  0.0000,  0.0000)
   4 Na     9.814200    7.802954    6.642312    ( 0.0000,  0.0000,  0.0000)
   5 Na     9.330311    6.879455    9.702276    ( 0.0000,  0.0000,  0.0000)

Unit cell:
           periodic     x           y           z      points  spacing
  1. axis:    no    16.000000    0.000000    0.000000    64     0.2500
  2. axis:    no     0.000000   16.000000    0.000000    64     0.2500
  3. axis:    no     0.000000    0.000000   16.000000    64     0.2500

  Lengths:  16.000000  16.000000  16.000000
  Angles:   90.000000  90.000000  90.000000

Effective grid spacing dv^(1/3) = 0.2500

                     log10-error:    total        iterations:
           time      wfs    density  energy       fermi  poisson
iter:   1  22:43:05  -0.86   +inf    -5.511122    4             
iter:   2  22:43:07  -2.11  -0.64    -5.430126    2             
iter:   3  22:43:09  -2.39  -0.73    -5.269552    4             
iter:   4  22:43:10  -3.29  -1.29    -5.268409    2             
iter:   5  22:43:12  -3.66  -1.37    -5.266598    2             
iter:   6  22:43:14  -4.04  -1.67    -5.266647    2             
iter:   7  22:43:16  -4.35  -1.78    -5.266485    3             
iter:   8  22:43:17  -4.85  -2.18    -5.266501    2             
iter:   9  22:43:19  -5.13  -2.29    -5.266475    1             
iter:  10  22:43:21  -5.59  -2.72    -5.266478    1             
iter:  11  22:43:23  -6.01  -2.77    -5.266475    1             
iter:  12  22:43:24  -6.39  -2.89    -5.266476    2             
iter:  13  22:43:26  -6.56  -2.98    -5.266477    2             
iter:  14  22:43:28  -7.06  -3.56    -5.266477    1             
iter:  15  22:43:30  -7.41  -3.66    -5.266477    1             
iter:  16  22:43:31  -7.81  -3.81    -5.266477    1             
iter:  17  22:43:33  -8.16  -3.84    -5.266477    1             
iter:  18  22:43:35  -8.57  -4.22    -5.266477    1             

Converged after 18 iterations.

Dipole moment: (-0.049770, -0.074441, -0.039466) |e|*Ang

Energy contributions relative to reference atoms: (reference = -26392.251304)

Kinetic:        +15.152261
Potential:      -13.292429
External:        +0.000000
XC:              -7.125154
Entropy (-ST):   -0.000121
Local:           -0.001093
--------------------------
Free energy:     -5.266537
Extrapolated:    -5.266477

Fermi level: -2.42166

 Band  Eigenvalues  Occupancy
    0     -4.23603    2.00000
    1     -2.95218    1.99995
    2     -2.94293    1.99994
    3     -1.93055    0.00011
    4     -1.60027    0.00000
    5     -1.52088    0.00000
    6     -1.33988    0.00000
    7     -0.79445    0.00000
    8     -0.78652    0.00000
    9     -0.27020    0.00000
   10     -0.24006    0.00000
   11     -0.22535    0.00000
   12     -0.20072    0.00000
   13     -0.17726    0.00000
   14      0.19118    0.00000

Gap: 1.012 eV
Transition (v -> c):
  (s=0, k=0, n=2, [0.00, 0.00, 0.00]) -> (s=0, k=0, n=3, [0.00, 0.00, 0.00])

Forces in eV/Ang:
  0 Na   -0.10890    0.17995   -0.08203
  1 Na   -0.13053   -0.00157    0.11603
  2 Na    0.03763    0.02641   -0.04304
  3 Na   -0.03177    0.03091    0.04117
  4 Na    0.08929   -0.02249   -0.16085
  5 Na    0.14444   -0.21293    0.12892

System changes: positions 

Initializing position-dependent things.

Density initialized from wave functions
           .--------------------------------------.  
          /|                                      |  
         / |                                      |  
        /  |                                      |  
       /   |                                      |  
      /    |                                      |  
     /     |                                      |  
    /      |                                      |  
   /       |                                      |  
  /        |                                      |  
 *         |                                      |  
 |         |          Na                          |  
 |         |                                      |  
 |         |       Na      Na                     |  
 |         |                Na                    |  
 |         |                                      |  
 |         |                                      |  
 |         |             Na   Na                  |  
 |         |                                      |  
 |         |                                      |  
 |         .--------------------------------------.  
 |        /                                      /   
 |       /                                      /    
 |      /                                      /     
 |     /                                      /      
 |    /                                      /       
 |   /                                      /        
 |  /                                      /         
 | /                                      /          
 |/                                      /           
 *--------------------------------------*            

Positions:
   0 Na     8.278534    9.625625    8.703295    ( 0.0000,  0.0000,  0.0000)
   1 Na     6.417230    8.068290   10.878817    ( 0.0000,  0.0000,  0.0000)
   2 Na     5.039870    9.903774    8.333241    ( 0.0000,  0.0000,  0.0000)
   3 Na     7.225725    9.749119    5.607617    ( 0.0000,  0.0000,  0.0000)
   4 Na     9.910284    7.827455    6.527235    ( 0.0000,  0.0000,  0.0000)
   5 Na     9.448557    6.754875    9.800487    ( 0.0000,  0.0000,  0.0000)

Unit cell:
           periodic     x           y           z      points  spacing
  1. axis:    no    16.000000    0.000000    0.000000    64     0.2500
  2. axis:    no     0.000000   16.000000    0.000000    64     0.2500
  3. axis:    no     0.000000    0.000000   16.000000    64     0.2500

  Lengths:  16.000000  16.000000  16.000000
  Angles:   90.000000  90.000000  90.000000

Effective grid spacing dv^(1/3) = 0.2500

                     log10-error:    total        iterations:
           time      wfs    density  energy       fermi  poisson
iter:   1  22:43:39  -0.89   +inf    -5.487816    4             
iter:   2  22:43:41  -2.14  -0.73    -5.440454    3             
iter:   3  22:43:42  -2.58  -0.80    -5.331368    4             
iter:   4  22:43:44  -3.58  -1.33    -5.330184    2             
iter:   5  22:43:46  -3.90  -1.42    -5.328246    2             
iter:   6  22:43:48  -4.32  -1.62    -5.327841    2             
iter:   7  22:43:49  -4.34  -1.72    -5.327771    2             
iter:   8  22:43:51  -4.88  -2.31    -5.327809    2             
iter:   9  22:43:53  -5.21  -2.35    -5.327779    2             
iter:  10  22:43:55  -5.65  -2.77    -5.327782    1             
iter:  11  22:43:56  -6.05  -2.82    -5.327783    1             
iter:  12  22:43:58  -6.37  -2.87    -5.327782    2             
iter:  13  22:44:00  -6.76  -3.02    -5.327782    1             
iter:  14  22:44:02  -7.12  -3.08    -5.327782    1             
iter:  15  22:44:03  -7.10  -3.12    -5.327782    1             
iter:  16  22:44:05  -7.66  -3.62    -5.327782    1             
iter:  17  22:44:07  -7.91  -3.68    -5.327782    1             
iter:  18  22:44:09  -8.28  -3.93    -5.327782    1             
iter:  19  22:44:11  -8.46  -3.99    -5.327782    1             
iter:  20  22:44:12  -8.93  -4.65    -5.327782    1             

Converged after 20 iterations.

Dipole moment: (-0.062013, -0.090843, -0.043852) |e|*Ang

Energy contributions relative to reference atoms: (reference = -26392.251304)

Kinetic:        +12.358090
Potential:      -11.131698
External:        +0.000000
XC:              -6.552548
Entropy (-ST):   -0.000066
Local:           -0.001593
--------------------------
Free energy:     -5.327815
Extrapolated:    -5.327782

Fermi level: -2.37888

 Band  Eigenvalues  Occupancy
    0     -4.14696    2.00000
    1     -2.94635    1.99998
    2     -2.93116    1.99997
    3     -1.85357    0.00005
    4     -1.60711    0.00000
    5     -1.59785    0.00000
    6     -1.32745    0.00000
    7     -0.77337    0.00000
    8     -0.76480    0.00000
    9     -0.32949    0.00000
   10     -0.31540    0.00000
   11     -0.26694    0.00000
   12     -0.23558    0.00000
   13     -0.15479    0.00000
   14      0.21281    0.00000

Gap: 1.078 eV
Transition (v -> c):
  (s=0, k=0, n=2, [0.00, 0.00, 0.00]) -> (s=0, k=0, n=3, [0.00, 0.00, 0.00])

Forces in eV/Ang:
  0 Na    0.00308   -0.00267    0.00173
  1 Na    0.00135   -0.01296    0.01858
  2 Na   -0.00664    0.01172   -0.01637
  3 Na   -0.01654    0.01280   -0.00276
  4 Na    0.01798   -0.01382   -0.00163
  5 Na    0.00085    0.00505    0.00052

System changes: positions 

Initializing position-dependent things.

Density initialized from wave functions
           .--------------------------------------.  
          /|                                      |  
         / |                                      |  
        /  |                                      |  
       /   |                                      |  
      /    |                                      |  
     /     |                                      |  
    /      |                                      |  
   /       |                                      |  
  /        |                                      |  
 *         |                                      |  
 |         |          Na                          |  
 |         |                                      |  
 |         |       Na      Na                     |  
 |         |                Na                    |  
 |         |                                      |  
 |         |                                      |  
 |         |             Na   Na                  |  
 |         |                                      |  
 |         |                                      |  
 |         .--------------------------------------.  
 |        /                                      /   
 |       /                                      /    
 |      /                                      /     
 |     /                                      /      
 |    /                                      /       
 |   /                                      /        
 |  /                                      /         
 | /                                      /          
 |/                                      /           
 *--------------------------------------*            

Positions:
   0 Na     8.277504    9.600195    8.704173    ( 0.0000,  0.0000,  0.0000)
   1 Na     6.416399    8.054565   10.910965    ( 0.0000,  0.0000,  0.0000)
   2 Na     5.026727    9.926906    8.310182    ( 0.0000,  0.0000,  0.0000)
   3 Na     7.203268    9.772551    5.599219    ( 0.0000,  0.0000,  0.0000)
   4 Na     9.939871    7.812678    6.520796    ( 0.0000,  0.0000,  0.0000)
   5 Na     9.456574    6.762381    9.805468    ( 0.0000,  0.0000,  0.0000)

Unit cell:
           periodic     x           y           z      points  spacing
  1. axis:    no    16.000000    0.000000    0.000000    64     0.2500
  2. axis:    no     0.000000   16.000000    0.000000    64     0.2500
  3. axis:    no     0.000000    0.000000   16.000000    64     0.2500

  Lengths:  16.000000  16.000000  16.000000
  Angles:   90.000000  90.000000  90.000000

Effective grid spacing dv^(1/3) = 0.2500

                     log10-error:    total        iterations:
           time      wfs    density  energy       fermi  poisson
iter:   1  22:44:16  -2.25   +inf    -5.332110    2             
iter:   2  22:44:18  -3.45  -1.55    -5.331274    2             
iter:   3  22:44:20  -4.00  -1.61    -5.328830    3             
iter:   4  22:44:22  -4.95  -2.09    -5.328797    2             
iter:   5  22:44:23  -5.38  -2.16    -5.328752    1             
iter:   6  22:44:25  -5.66  -2.34    -5.328743    1             
iter:   7  22:44:27  -5.92  -2.50    -5.328745    2             
iter:   8  22:44:29  -6.57  -2.98    -5.328746    1             
iter:   9  22:44:30  -6.73  -3.02    -5.328745    1             
iter:  10  22:44:32  -7.24  -3.47    -5.328745    1             
iter:  11  22:44:34  -7.69  -3.52    -5.328745    1             
iter:  12  22:44:35  -7.85  -3.55    -5.328745    1             
iter:  13  22:44:37  -8.33  -4.07    -5.328745    1             

Converged after 13 iterations.

Dipole moment: (-0.061638, -0.094754, -0.043153) |e|*Ang

Energy contributions relative to reference atoms: (reference = -26392.251304)

Kinetic:        +11.820834
Potential:      -10.711928
External:        +0.000000
XC:              -6.436009
Entropy (-ST):   -0.000060
Local:           -0.001612
--------------------------
Free energy:     -5.328775
Extrapolated:    -5.328745

Fermi level: -2.37140

 Band  Eigenvalues  Occupancy
    0     -4.12993    2.00000
    1     -2.93882    1.99998
    2     -2.93374    1.99997
    3     -1.84023    0.00005
    4     -1.61701    0.00000
    5     -1.60540    0.00000
    6     -1.32546    0.00000
    7     -0.77216    0.00000
    8     -0.75779    0.00000
    9     -0.34437    0.00000
   10     -0.32680    0.00000
   11     -0.27850    0.00000
   12     -0.24431    0.00000
   13     -0.14879    0.00000
   14      0.21715    0.00000

Gap: 1.094 eV
Transition (v -> c):
  (s=0, k=0, n=2, [0.00, 0.00, 0.00]) -> (s=0, k=0, n=3, [0.00, 0.00, 0.00])

Forces in eV/Ang:
  0 Na   -0.01442    0.00048   -0.01132
  1 Na   -0.00004    0.00377   -0.00589
  2 Na    0.01309   -0.00351    0.00395
  3 Na    0.00558   -0.00199    0.01208
  4 Na   -0.00399    0.00367    0.00051
  5 Na   -0.00033   -0.00245    0.00064

System changes: positions 

Initializing position-dependent things.

Density initialized from wave functions
           .--------------------------------------.  
          /|                                      |  
         / |                                      |  
        /  |                                      |  
       /   |                                      |  
      /    |                                      |  
     /     |                                      |  
    /      |                                      |  
   /       |                                      |  
  /        |                                      |  
 *         |           Na                         |  
 |         |                                      |  
 |         |                Na                    |  
 |         |                                      |  
 |         |            Na                        |  
 |         |                    Na                |  
 |         |                                      |  
 |         |                Na                    |  
 |         |                                      |  
 |         |             Na                       |  
 |         .--------------------------------------.  
 |        /                                      /   
 |       /                                      /    
 |      /                                      /     
 |     /                                      /      
 |    /                                      /       
 |   /                                      /        
 |  /                                      /         
 | /                                      /          
 |/                                      /           
 *--------------------------------------*            

Positions:
   0 Na    11.424656    5.047862    9.667296    ( 0.0000,  0.0000,  0.0000)
   1 Na     9.089070    7.136032   10.704603    ( 0.0000,  0.0000,  0.0000)
   2 Na     6.697711    9.265501   11.510766    ( 0.0000,  0.0000,  0.0000)
   3 Na     7.669295    7.999593    5.120131    ( 0.0000,  0.0000,  0.0000)
   4 Na     9.608597    6.465124    7.305461    ( 0.0000,  0.0000,  0.0000)
   5 Na     7.096167    8.696937    8.289992    ( 0.0000,  0.0000,  0.0000)

Unit cell:
           periodic     x           y           z      points  spacing
  1. axis:    no    16.000000    0.000000    0.000000    64     0.2500
  2. axis:    no     0.000000   16.000000    0.000000    64     0.2500
  3. axis:    no     0.000000    0.000000   16.000000    64     0.2500

  Lengths:  16.000000  16.000000  16.000000
  Angles:   90.000000  90.000000  90.000000

Effective grid spacing dv^(1/3) = 0.2500

                     log10-error:    total        iterations:
           time      wfs    density  energy       fermi  poisson
iter:   1  22:44:41  +0.58   +inf   -11.693677    27            
iter:   2  22:44:43  -0.30  +0.06   -10.888595    5             
iter:   3  22:44:45  -1.05  +0.04    -7.679498    10            
iter:   4  22:44:46  -1.44  -0.10    -5.549252    17            
iter:   5  22:44:48  -2.10  -0.44    -5.460731    3             
iter:   6  22:44:50  -1.95  -0.49    -5.310680    10            
iter:   7  22:44:52  -2.84  -0.79    -5.306629    2             
iter:   8  22:44:53  -2.83  -0.85    -5.265151    5             
iter:   9  22:44:55  -3.67  -1.20    -5.268235    3             
iter:  10  22:44:57  -3.85  -1.32    -5.269050    2             
iter:  11  22:44:59  -4.27  -1.65    -5.268668    2             
iter:  12  22:45:00  -4.98  -1.88    -5.268641    2             
iter:  13  22:45:02  -5.34  -1.93    -5.268615    1             
iter:  14  22:45:04  -5.61  -2.04    -5.268544    2             
iter:  15  22:45:06  -5.78  -2.12    -5.268448    1             
iter:  16  22:45:07  -6.38  -2.20    -5.268466    2             
iter:  17  22:45:09  -6.27  -2.24    -5.268531    1             
iter:  18  22:45:11  -5.99  -2.35    -5.268576    2             
iter:  19  22:45:13  -6.60  -2.60    -5.268572    1             
iter:  20  22:45:14  -6.90  -2.72    -5.268564    1             
iter:  21  22:45:16  -6.78  -2.82    -5.268557    1             
iter:  22  22:45:18  -7.81  -3.05    -5.268557    1             
iter:  23  22:45:20  -7.46  -3.11    -5.268555    1             
iter:  24  22:45:21  -8.20  -3.51    -5.268555    1             
iter:  25  22:45:23  -8.56  -3.54    -5.268555    1             
iter:  26  22:45:25  -9.25  -3.60    -5.268555    1             
iter:  27  22:45:27  -8.51  -3.62    -5.268555    1             
iter:  28  22:45:28  -9.51  -4.13    -5.268555    1             

Converged after 28 iterations.

Dipole moment: (0.016997, -0.010692, -0.011959) |e|*Ang

Energy contributions relative to reference atoms: (reference = -26392.251304)

Kinetic:        +12.000838
Potential:      -11.012385
External:        +0.000000
XC:              -6.255897
Entropy (-ST):   -0.000017
Local:           -0.001103
--------------------------
Free energy:     -5.268564
Extrapolated:    -5.268555

Fermi level: -2.37765

 Band  Eigenvalues  Occupancy
    0     -4.02623    2.00000
    1     -3.01104    1.99999
    2     -3.00855    1.99999
    3     -1.77566    0.00001
    4     -1.63072    0.00000
    5     -1.61286    0.00000
    6     -1.42347    0.00000
    7     -0.66680    0.00000
    8     -0.63994    0.00000
    9     -0.61667    0.00000
   10     -0.56678    0.00000
   11     -0.45542    0.00000
   12     -0.26975    0.00000
   13     -0.06836    0.00000
   14      0.26318    0.00000

Gap: 1.233 eV
Transition (v -> c):
  (s=0, k=0, n=2, [0.00, 0.00, 0.00]) -> (s=0, k=0, n=3, [0.00, 0.00, 0.00])
System changes: positions 

Initializing position-dependent things.

Density initialized from wave functions
           .--------------------------------------.  
          /|                                      |  
         / |                                      |  
        /  |                                      |  
       /   |                                      |  
      /    |                                      |  
     /     |                                      |  
    /      |                                      |  
   /       |                                      |  
  /        |                                      |  
 *         |                                      |  
 |         |          Na                          |  
 |         |                                      |  
 |         |       Na      Na                     |  
 |         |                Na                    |  
 |         |                                      |  
 |         |                                      |  
 |         |             Na   Na                  |  
 |         |                                      |  
 |         |                                      |  
 |         .--------------------------------------.  
 |        /                                      /   
 |       /                                      /    
 |      /                                      /     
 |     /                                      /      
 |    /                                      /       
 |   /                                      /        
 |  /                                      /         
 | /                                      /          
 |/                                      /           
 *--------------------------------------*            

Positions:
   0 Na     8.277504    9.600195    8.704173    ( 0.0000,  0.0000,  0.0000)
   1 Na     6.416399    8.054565   10.910965    ( 0.0000,  0.0000,  0.0000)
   2 Na     5.026727    9.926906    8.310182    ( 0.0000,  0.0000,  0.0000)
   3 Na     7.203268    9.772551    5.599219    ( 0.0000,  0.0000,  0.0000)
   4 Na     9.939871    7.812678    6.520796    ( 0.0000,  0.0000,  0.0000)
   5 Na     9.456574    6.762381    9.805468    ( 0.0000,  0.0000,  0.0000)

Unit cell:
           periodic     x           y           z      points  spacing
  1. axis:    no    16.000000    0.000000    0.000000    64     0.2500
  2. axis:    no     0.000000   16.000000    0.000000    64     0.2500
  3. axis:    no     0.000000    0.000000   16.000000    64     0.2500

  Lengths:  16.000000  16.000000  16.000000
  Angles:   90.000000  90.000000  90.000000

Effective grid spacing dv^(1/3) = 0.2500

                     log10-error:    total        iterations:
           time      wfs    density  energy       fermi  poisson
iter:   1  22:45:31  +0.39   +inf    -8.233225    25            
iter:   2  22:45:33  -0.54  -0.05    -7.830026    4             
iter:   3  22:45:34  -1.13  -0.09    -5.598894    28            
iter:   4  22:45:36  -1.77  -0.44    -5.538184    3             
iter:   5  22:45:38  -2.07  -0.49    -5.332422    7             
iter:   6  22:45:40  -2.51  -0.85    -5.361061    4             
iter:   7  22:45:41  -2.82  -0.90    -5.326160    4             
iter:   8  22:45:43  -3.48  -1.27    -5.327759    2             
iter:   9  22:45:45  -3.89  -1.37    -5.329065    3             
iter:  10  22:45:47  -4.29  -1.65    -5.328669    2             
iter:  11  22:45:48  -4.79  -1.81    -5.328668    2             
iter:  12  22:45:50  -4.96  -1.86    -5.328651    2             
iter:  13  22:45:52  -5.34  -2.07    -5.328797    2             
iter:  14  22:45:54  -5.80  -2.19    -5.328772    2             
iter:  15  22:45:55  -6.24  -2.33    -5.328747    2             
iter:  16  22:45:57  -6.65  -2.45    -5.328742    2             
iter:  17  22:45:59  -6.43  -2.52    -5.328743    1             
iter:  18  22:46:01  -7.32  -2.82    -5.328743    1             
iter:  19  22:46:02  -7.32  -2.86    -5.328742    1             
iter:  20  22:46:04  -7.67  -2.98    -5.328744    1             
iter:  21  22:46:06  -8.27  -3.09    -5.328745    1             
iter:  22  22:46:08  -7.85  -3.14    -5.328745    1             
iter:  23  22:46:09  -8.61  -3.32    -5.328745    1             
iter:  24  22:46:11  -7.80  -3.38    -5.328745    1             
iter:  25  22:46:13  -8.87  -3.83    -5.328745    1             
iter:  26  22:46:15  -9.28  -3.87    -5.328745    1             
iter:  27  22:46:16  -9.29  -3.97    -5.328745    1             
iter:  28  22:46:18  -9.65  -4.17    -5.328745    1             

Converged after 28 iterations.

Dipole moment: (-0.061737, -0.094645, -0.043101) |e|*Ang

Energy contributions relative to reference atoms: (reference = -26392.251304)

Kinetic:        +11.820781
Potential:      -10.711995
External:        +0.000000
XC:              -6.436185
Entropy (-ST):   -0.000060
Local:           -0.001317
--------------------------
Free energy:     -5.328775
Extrapolated:    -5.328745

Fermi level: -2.37138

 Band  Eigenvalues  Occupancy
    0     -4.12993    2.00000
    1     -2.93883    1.99998
    2     -2.93366    1.99997
    3     -1.84022    0.00005
    4     -1.61696    0.00000
    5     -1.60536    0.00000
    6     -1.32544    0.00000
    7     -0.77215    0.00000
    8     -0.75775    0.00000
    9     -0.34432    0.00000
   10     -0.32679    0.00000
   11     -0.27847    0.00000
   12     -0.24426    0.00000
   13     -0.14877    0.00000
   14      0.21715    0.00000

Gap: 1.093 eV
Transition (v -> c):
  (s=0, k=0, n=2, [0.00, 0.00, 0.00]) -> (s=0, k=0, n=3, [0.00, 0.00, 0.00])
Timing:                                      incl.     excl.
-------------------------------------------------------------------
Density initialized from wave functions:     4.692     4.691   0.8% |
 Symmetrize density:                         0.000     0.000   0.0% |
Forces:                                     15.890    15.890   2.6% ||
Hamiltonian:                                15.102     0.103   0.0% |
 Atomic:                                     1.686     0.018   0.0% |
  XC Correction:                             1.668     1.668   0.3% |
 Calculate atomic Hamiltonians:              3.657     3.657   0.6% |
 Communicate:                                0.000     0.000   0.0% |
 Initialize Hamiltonian:                     0.000     0.000   0.0% |
 Poisson:                                    0.217     0.217   0.0% |
 XC 3D grid:                                 9.440     9.440   1.6% ||
LCAO initialization:                         0.111     0.017   0.0% |
 LCAO eigensolver:                           0.011     0.000   0.0% |
  Calculate projections:                     0.000     0.000   0.0% |
  DenseAtomicCorrection:                     0.000     0.000   0.0% |
  Distribute overlap matrix:                 0.000     0.000   0.0% |
  Orbital Layouts:                           0.000     0.000   0.0% |
  Potential matrix:                          0.010     0.010   0.0% |
 LCAO to grid:                               0.059     0.059   0.0% |
 Set positions (LCAO WFS):                   0.024     0.004   0.0% |
  Basic WFS set positions:                   0.000     0.000   0.0% |
  Basis functions set positions:             0.000     0.000   0.0% |
  P tci:                                     0.011     0.011   0.0% |
  ST tci:                                    0.003     0.003   0.0% |
  mktci:                                     0.006     0.006   0.0% |
PWDescriptor:                                0.015     0.015   0.0% |
Redistribute:                                0.010     0.010   0.0% |
SCF-cycle:                                 553.009     0.235   0.0% |
 Davidson:                                 157.389    38.823   6.4% |--|
  Apply H:                                  20.813    19.359   3.2% ||
   HMM T:                                    1.455     1.455   0.2% |
  Subspace diag:                            28.588     0.045   0.0% |
   calc_h_matrix:                           23.715     2.864   0.5% |
    Apply H:                                20.851    19.341   3.2% ||
     HMM T:                                  1.510     1.510   0.2% |
   diagonalize:                              0.077     0.077   0.0% |
   rotate_psi:                               4.751     4.751   0.8% |
  calc. matrices:                           60.452    18.846   3.1% ||
   Apply H:                                 41.606    38.679   6.4% |--|
    HMM T:                                   2.927     2.927   0.5% |
  diagonalize:                               0.331     0.331   0.1% |
  rotate_psi:                                8.382     8.382   1.4% ||
 Density:                                  103.439     0.008   0.0% |
  Atomic density matrices:                   0.285     0.285   0.0% |
  Mix:                                      88.369    88.369  14.6% |-----|
  Multipole moments:                         0.072     0.072   0.0% |
  Pseudo density:                           14.705    14.696   2.4% ||
   Symmetrize density:                       0.008     0.008   0.0% |
 Hamiltonian:                              291.365     1.997   0.3% |
  Atomic:                                   33.000     0.331   0.1% |
   XC Correction:                           32.669    32.669   5.4% |-|
  Calculate atomic Hamiltonians:            68.087    68.087  11.3% |----|
  Communicate:                               0.004     0.004   0.0% |
  Poisson:                                   4.073     4.073   0.7% |
  XC 3D grid:                              184.205   184.205  30.5% |-----------|
 Orthonormalize:                             0.581     0.003   0.0% |
  calc_s_matrix:                             0.099     0.099   0.0% |
  inverse-cholesky:                          0.005     0.005   0.0% |
  projections:                               0.337     0.337   0.1% |
  rotate_psi_s:                              0.136     0.136   0.0% |
Set symmetry:                                0.001     0.001   0.0% |
Other:                                      15.561    15.561   2.6% ||
-------------------------------------------------------------------
Total:                                               604.391 100.0%

Memory usage: 531.62 MiB
Date: Tue Feb  4 22:46:18 2020
