
  ___ ___ ___ _ _ _  
 |   |   |_  | | | | 
 | | | | | . | | | | 
 |__ |  _|___|_____|  19.8.1
 |___|_|             

User:   ericlin@hebbe12-5
Date:   Thu Feb 13 09:53:07 2020
Arch:   x86_64
Pid:    21686
Python: 3.7.2
gpaw:   /apps/Hebbe7/software/MPI/GCC/8.2.0-2.31.1/OpenMPI/3.1.3/GPAW/19.8.1-Python-3.7.2-libvdwxc/lib/python3.7/site-packages/gpaw
_gpaw:  /apps/Hebbe7/software/MPI/GCC/8.2.0-2.31.1/OpenMPI/3.1.3/GPAW/19.8.1-Python-3.7.2-libvdwxc/bin/
        gpaw-python
ase:    /apps/Hebbe7/software/MPI/GCC/8.2.0-2.31.1/OpenMPI/3.1.3/ASE/3.18.0-Python-3.7.2/lib/python3.7/site-packages/ase (version 3.18.0)
numpy:  /apps/Hebbe7/software/MPI/GCC/8.2.0-2.31.1/OpenMPI/3.1.3/SciPy-bundle/2019.03/lib/python3.7/site-packages/numpy (version 1.16.2)
scipy:  /apps/Hebbe7/software/MPI/GCC/8.2.0-2.31.1/OpenMPI/3.1.3/SciPy-bundle/2019.03/lib/python3.7/site-packages/scipy (version 1.2.1)
libxc:  4.3.4
units:  Angstrom and eV
cores:  1

Input parameters:
  h: 0.25
  mode: {ecut: 350.0,
         gammacentered: False,
         name: pw}
  nbands: 15
  occupations: {name: fermi-dirac,
                width: 0.05}
  setups: {Na: 1}
  xc: PBE

System changes: positions, numbers, cell, pbc, initial_charges, initial_magmoms 

Initialize ...

Na-setup:
  name: Sodium
  id: 8dbce52902f3add137ce7d12431c9cac
  Z: 11
  valence: 1
  core: 10
  charge: 0.0
  file: /apps/Common/Core/GPAW-setups/0.9.20000/Na.1.PBE.gz
  compensation charges: gauss, rc=0.43, lmax=2
  cutoffs: 2.36(filt), 3.60(core),
  valence states:
                energy  radius
    3s(1.00)    -2.744   1.349
    3p(0.00)    -0.743   1.349
    *s          24.468   1.349

  Using partial waves for Na as LCAO basis

Reference energy: -26511.662975

Spin-paired calculation

Occupation numbers:
  Fermi-Dirac: width=0.0500 eV

Convergence criteria:
  Maximum total energy change: 0.0005 eV / electron
  Maximum integral of absolute density change: 0.0001 electrons
  Maximum integral of absolute eigenstate change: 4e-08 eV^2
  Maximum number of iterations: 333

Symmetries present (total): 1

  ( 1  0  0)
  ( 0  1  0)
  ( 0  0  1)

1 k-point (Gamma)
1 k-point in the irreducible part of the Brillouin zone
       k-points in crystal coordinates                weights
   0:     0.00000000    0.00000000    0.00000000          1/1

Wave functions: Plane wave expansion
  Cutoff energy: 350.000 eV
  Number of coefficients: 61037 (reduced to 30519)
  Pulay-stress correction: 0.000000 eV/Ang^3 (de/decut=0.000000)
  Using FFTW library
  ScaLapack parameters: grid=1x1, blocksize=None
  Wavefunction extrapolation:
    Improved wavefunction reuse through dual PAW basis 

Eigensolver
   Davidson(niter=2, smin=None, normalize=True) 

Densities:
  Coarse grid: 64*64*64 grid
  Fine grid: 128*128*128 grid
  Total Charge: 0.000000 

Density mixing:
  Method: separate
  Backend: pulay
  Linear mixing parameter: 0.05
  Mixing with 5 old densities
  Damping of long wave oscillations: 50 

Hamiltonian:
  XC and Coulomb potentials evaluated on a 128*128*128 grid
  Using the PBE Exchange-Correlation functional
 

XC parameters: PBE with 2 nearest neighbor stencil

Memory estimate:
  Process memory now: 553.07 MiB
  Calculator: 181.86 MiB
    Density: 123.30 MiB
      Arrays: 52.00 MiB
      Localized functions: 51.30 MiB
      Mixer: 20.00 MiB
    Hamiltonian: 35.05 MiB
      Arrays: 34.00 MiB
      XC: 0.00 MiB
      Poisson: 0.00 MiB
      vbar: 1.05 MiB
    Wavefunctions: 23.51 MiB
      Arrays psit_nG: 6.99 MiB
      Eigensolver: 9.33 MiB
      Projections: 0.00 MiB
      Projectors: 1.63 MiB
      PW-descriptor: 5.56 MiB

Total number of cores used: 1

Number of atoms: 6
Number of atomic orbitals: 24
Number of bands in calculation: 15
Bands to converge: occupied states only
Number of valence electrons: 6

... initialized

Initializing position-dependent things.

Density initialized from atomic densities
Creating initial wave functions:
  15 bands from LCAO basis set

           .--------------------------------------.  
          /|                                      |  
         / |                                      |  
        /  |                                      |  
       /   |                                      |  
      /    |                                      |  
     /     |                                      |  
    /      |                                      |  
   /       |                                      |  
  /        |                                      |  
 *         |           Na                         |  
 |         |                                      |  
 |         |                Na                    |  
 |         |                                      |  
 |         |            Na                        |  
 |         |                    Na                |  
 |         |                                      |  
 |         |                Na                    |  
 |         |                                      |  
 |         |             Na                       |  
 |         .--------------------------------------.  
 |        /                                      /   
 |       /                                      /    
 |      /                                      /     
 |     /                                      /      
 |    /                                      /       
 |   /                                      /        
 |  /                                      /         
 | /                                      /          
 |/                                      /           
 *--------------------------------------*            

Positions:
   0 Na    11.424955    5.046215    9.661160    ( 0.0000,  0.0000,  0.0000)
   1 Na     9.091214    7.135542   10.719357    ( 0.0000,  0.0000,  0.0000)
   2 Na     6.710298    9.263471   11.516303    ( 0.0000,  0.0000,  0.0000)
   3 Na     7.680133    8.011559    5.125248    ( 0.0000,  0.0000,  0.0000)
   4 Na     9.624253    6.463545    7.292195    ( 0.0000,  0.0000,  0.0000)
   5 Na     7.055205    8.690646    8.283979    ( 0.0000,  0.0000,  0.0000)

Unit cell:
           periodic     x           y           z      points  spacing
  1. axis:    no    16.000000    0.000000    0.000000    64     0.2500
  2. axis:    no     0.000000   16.000000    0.000000    64     0.2500
  3. axis:    no     0.000000    0.000000   16.000000    64     0.2500

  Lengths:  16.000000  16.000000  16.000000
  Angles:   90.000000  90.000000  90.000000

Effective grid spacing dv^(1/3) = 0.2500

                     log10-error:    total        iterations:
           time      wfs    density  energy       fermi  poisson
iter:   1  09:53:12  +0.41   +inf    -4.911961    2             
iter:   2  09:53:15  -1.09  -0.51    -4.922274    2             
iter:   3  09:53:18  -1.74  -0.53    -4.826083    5             
iter:   4  09:53:21  -2.31  -0.77    -4.828578    3             
iter:   5  09:53:24  -2.62  -0.88    -4.830942    3             
iter:   6  09:53:26  -3.19  -1.42    -4.832182    3             
iter:   7  09:53:29  -3.77  -1.63    -4.831814    2             
iter:   8  09:53:32  -4.01  -1.73    -4.831388    3             
iter:   9  09:53:35  -4.72  -2.34    -4.831305    2             
iter:  10  09:53:37  -5.15  -2.42    -4.831333    2             
iter:  11  09:53:40  -5.68  -2.70    -4.831335    1             
iter:  12  09:53:43  -5.91  -2.73    -4.831336    2             
iter:  13  09:53:46  -6.67  -2.92    -4.831336    1             
iter:  14  09:53:49  -7.07  -2.96    -4.831336    1             
iter:  15  09:53:51  -7.53  -3.10    -4.831336    1             
iter:  16  09:53:54  -7.19  -3.17    -4.831335    1             
iter:  17  09:53:57  -8.05  -3.59    -4.831334    1             
iter:  18  09:54:00  -8.96  -3.96    -4.831334    1             
iter:  19  09:54:03  -8.97  -3.99    -4.831334    1             
iter:  20  09:54:05  -9.29  -4.29    -4.831334    1             

Converged after 20 iterations.

Dipole moment: (0.018474, -0.008588, -0.012053) |e|*Ang

Energy contributions relative to reference atoms: (reference = -26511.662975)

Kinetic:        +11.685057
Potential:      -10.663439
External:        +0.000000
XC:              -5.854231
Entropy (-ST):   -0.000017
Local:           +0.001287
--------------------------
Free energy:     -4.831343
Extrapolated:    -4.831334

Fermi level: -2.26757

 Band  Eigenvalues  Occupancy
    0     -3.89870    2.00000
    1     -2.90227    1.99999
    2     -2.89971    1.99999
    3     -1.66274    0.00001
    4     -1.53530    0.00000
    5     -1.51273    0.00000
    6     -1.33011    0.00000
    7     -0.60556    0.00000
    8     -0.57057    0.00000
    9     -0.54747    0.00000
   10     -0.48947    0.00000
   11     -0.39558    0.00000
   12     -0.18656    0.00000
   13     -0.07025    0.00000
   14      0.28964    0.00000

Gap: 1.237 eV
Transition (v -> c):
  (s=0, k=0, n=2, [0.00, 0.00, 0.00]) -> (s=0, k=0, n=3, [0.00, 0.00, 0.00])
System changes: positions 

Initializing position-dependent things.

Density initialized from wave functions
           .--------------------------------------.  
          /|                                      |  
         / |                                      |  
        /  |                                      |  
       /   |                                      |  
      /    |                                      |  
     /     |                                      |  
    /      |                                      |  
   /       |                                      |  
  /        |                                      |  
 *         |                                      |  
 |         |          Na                          |  
 |         |                                      |  
 |         |       Na      Na                     |  
 |         |                Na                    |  
 |         |                                      |  
 |         |                                      |  
 |         |             Na   Na                  |  
 |         |                                      |  
 |         |                                      |  
 |         .--------------------------------------.  
 |        /                                      /   
 |       /                                      /    
 |      /                                      /     
 |     /                                      /      
 |    /                                      /       
 |   /                                      /        
 |  /                                      /         
 | /                                      /          
 |/                                      /           
 *--------------------------------------*            

Positions:
   0 Na     8.210231    9.489933    8.656516    ( 0.0000,  0.0000,  0.0000)
   1 Na     6.417931    8.101846   10.968460    ( 0.0000,  0.0000,  0.0000)
   2 Na     5.009862    9.947279    8.321395    ( 0.0000,  0.0000,  0.0000)
   3 Na     7.211492    9.790525    5.577356    ( 0.0000,  0.0000,  0.0000)
   4 Na     9.992557    7.848605    6.505352    ( 0.0000,  0.0000,  0.0000)
   5 Na     9.477264    6.754058    9.822530    ( 0.0000,  0.0000,  0.0000)

Unit cell:
           periodic     x           y           z      points  spacing
  1. axis:    no    16.000000    0.000000    0.000000    64     0.2500
  2. axis:    no     0.000000   16.000000    0.000000    64     0.2500
  3. axis:    no     0.000000    0.000000   16.000000    64     0.2500

  Lengths:  16.000000  16.000000  16.000000
  Angles:   90.000000  90.000000  90.000000

Effective grid spacing dv^(1/3) = 0.2500

                     log10-error:    total        iterations:
           time      wfs    density  energy       fermi  poisson
iter:   1  09:54:09  +0.36   +inf    -7.301509    25            
iter:   2  09:54:12  -0.59  -0.07    -6.936445    4             
iter:   3  09:54:15  -1.16  -0.10    -5.050255    27            
iter:   4  09:54:17  -1.90  -0.45    -5.009951    4             
iter:   5  09:54:20  -2.11  -0.49    -4.848788    6             
iter:   6  09:54:23  -2.61  -0.86    -4.882146    4             
iter:   7  09:54:26  -2.79  -0.91    -4.856236    4             
iter:   8  09:54:28  -3.51  -1.27    -4.859442    2             
iter:   9  09:54:31  -3.76  -1.36    -4.862274    3             
iter:  10  09:54:34  -4.20  -1.64    -4.862309    2             
iter:  11  09:54:37  -4.86  -1.82    -4.862358    2             
iter:  12  09:54:40  -5.06  -1.87    -4.862424    2             
iter:  13  09:54:42  -5.22  -2.02    -4.862670    1             
iter:  14  09:54:45  -5.84  -2.14    -4.862671    2             
iter:  15  09:54:48  -5.90  -2.23    -4.862638    2             
iter:  16  09:54:51  -6.56  -2.42    -4.862641    1             
iter:  17  09:54:54  -5.86  -2.48    -4.862667    1             
iter:  18  09:54:56  -6.93  -2.87    -4.862667    1             
iter:  19  09:54:59  -7.45  -2.91    -4.862666    1             
iter:  20  09:55:02  -7.63  -2.99    -4.862667    1             
iter:  21  09:55:05  -7.07  -3.04    -4.862671    1             
iter:  22  09:55:07  -8.34  -3.27    -4.862670    1             
iter:  23  09:55:10  -8.15  -3.30    -4.862671    1             
iter:  24  09:55:13  -7.95  -3.37    -4.862671    1             
iter:  25  09:55:16  -7.94  -3.52    -4.862672    1             
iter:  26  09:55:19  -9.11  -3.72    -4.862672    1             
iter:  27  09:55:21  -8.55  -3.76    -4.862672    1             
iter:  28  09:55:24  -9.46  -3.95    -4.862672    1             
iter:  29  09:55:27  -9.00  -4.00    -4.862672    1             
iter:  30  09:55:30  -9.50  -4.18    -4.862672    1             

Converged after 30 iterations.

Dipole moment: (-0.071618, -0.113080, -0.048689) |e|*Ang

Energy contributions relative to reference atoms: (reference = -26511.662975)

Kinetic:        +11.804194
Potential:      -10.597399
External:        +0.000000
XC:              -6.069637
Entropy (-ST):   -0.000037
Local:           +0.000188
--------------------------
Free energy:     -4.862690
Extrapolated:    -4.862672

Fermi level: -2.24079

 Band  Eigenvalues  Occupancy
    0     -4.00174    2.00000
    1     -2.83673    1.99999
    2     -2.82884    1.99998
    3     -1.67908    0.00003
    4     -1.53143    0.00000
    5     -1.52088    0.00000
    6     -1.25660    0.00000
    7     -0.67312    0.00000
    8     -0.65932    0.00000
    9     -0.30257    0.00000
   10     -0.27194    0.00000
   11     -0.22928    0.00000
   12     -0.19837    0.00000
   13     -0.08433    0.00000
   14      0.26163    0.00000

Gap: 1.150 eV
Transition (v -> c):
  (s=0, k=0, n=2, [0.00, 0.00, 0.00]) -> (s=0, k=0, n=3, [0.00, 0.00, 0.00])
System changes: positions 

Initializing position-dependent things.

Density initialized from wave functions
           .--------------------------------------.  
          /|                                      |  
         / |                                      |  
        /  |                                      |  
       /   |                                      |  
      /    |                                      |  
     /     |                                      |  
    /      |                                      |  
   /       |                                      |  
  /        |                                      |  
 *         |           Na                         |  
 |         |                                      |  
 |         |                Na                    |  
 |         |                                      |  
 |         |            Na                        |  
 |         |                    Na                |  
 |         |                                      |  
 |         |                Na                    |  
 |         |                                      |  
 |         |             Na                       |  
 |         .--------------------------------------.  
 |        /                                      /   
 |       /                                      /    
 |      /                                      /     
 |     /                                      /      
 |    /                                      /       
 |   /                                      /        
 |  /                                      /         
 | /                                      /          
 |/                                      /           
 *--------------------------------------*            

Positions:
   0 Na    11.424955    5.046215    9.661160    ( 0.0000,  0.0000,  0.0000)
   1 Na     9.091214    7.135542   10.719357    ( 0.0000,  0.0000,  0.0000)
   2 Na     6.710298    9.263471   11.516303    ( 0.0000,  0.0000,  0.0000)
   3 Na     7.680133    8.011559    5.125248    ( 0.0000,  0.0000,  0.0000)
   4 Na     9.624253    6.463545    7.292195    ( 0.0000,  0.0000,  0.0000)
   5 Na     7.055205    8.690646    8.283979    ( 0.0000,  0.0000,  0.0000)

Unit cell:
           periodic     x           y           z      points  spacing
  1. axis:    no    16.000000    0.000000    0.000000    64     0.2500
  2. axis:    no     0.000000   16.000000    0.000000    64     0.2500
  3. axis:    no     0.000000    0.000000   16.000000    64     0.2500

  Lengths:  16.000000  16.000000  16.000000
  Angles:   90.000000  90.000000  90.000000

Effective grid spacing dv^(1/3) = 0.2500

                     log10-error:    total        iterations:
           time      wfs    density  energy       fermi  poisson
iter:   1  09:55:33  +0.55   +inf   -11.079445    29            
iter:   2  09:55:36  -0.35  +0.06   -10.202896    5             
iter:   3  09:55:39  -1.07  +0.04    -7.145930    8             
iter:   4  09:55:42  -1.42  -0.10    -5.061197    27            
iter:   5  09:55:44  -2.24  -0.44    -4.976733    3             
iter:   6  09:55:47  -1.91  -0.49    -4.864139    10            
iter:   7  09:55:50  -2.90  -0.78    -4.863080    2             
iter:   8  09:55:53  -2.70  -0.84    -4.823190    4             
iter:   9  09:55:56  -3.59  -1.18    -4.828355    3             
iter:  10  09:55:58  -3.53  -1.29    -4.831615    2             
iter:  11  09:56:01  -4.12  -1.62    -4.831148    2             
iter:  12  09:56:04  -5.04  -1.84    -4.831167    1             
iter:  13  09:56:07  -5.35  -1.88    -4.831226    1             
iter:  14  09:56:09  -5.57  -2.00    -4.831198    2             
iter:  15  09:56:12  -5.79  -2.10    -4.831128    2             
iter:  16  09:56:15  -5.87  -2.19    -4.831184    2             
iter:  17  09:56:18  -6.18  -2.27    -4.831234    2             
iter:  18  09:56:21  -5.27  -2.34    -4.831338    2             
iter:  19  09:56:23  -6.50  -2.94    -4.831337    1             
iter:  20  09:56:26  -6.90  -2.99    -4.831335    1             
iter:  21  09:56:29  -7.76  -3.17    -4.831334    1             
iter:  22  09:56:32  -7.88  -3.19    -4.831334    1             
iter:  23  09:56:35  -7.81  -3.33    -4.831335    1             
iter:  24  09:56:37  -8.43  -3.62    -4.831334    1             
iter:  25  09:56:40  -9.12  -3.70    -4.831334    1             
iter:  26  09:56:43  -8.35  -3.75    -4.831334    1             
iter:  27  09:56:46  -9.40  -4.40    -4.831334    1             

Converged after 27 iterations.

Dipole moment: (0.018420, -0.008527, -0.012004) |e|*Ang

Energy contributions relative to reference atoms: (reference = -26511.662975)

Kinetic:        +11.685330
Potential:      -10.663658
External:        +0.000000
XC:              -5.854112
Entropy (-ST):   -0.000017
Local:           +0.001115
--------------------------
Free energy:     -4.831343
Extrapolated:    -4.831334

Fermi level: -2.26760

 Band  Eigenvalues  Occupancy
    0     -3.89872    2.00000
    1     -2.90231    1.99999
    2     -2.89974    1.99999
    3     -1.66277    0.00001
    4     -1.53534    0.00000
    5     -1.51275    0.00000
    6     -1.33013    0.00000
    7     -0.60558    0.00000
    8     -0.57059    0.00000
    9     -0.54751    0.00000
   10     -0.48950    0.00000
   11     -0.39564    0.00000
   12     -0.18657    0.00000
   13     -0.07028    0.00000
   14      0.28970    0.00000

Gap: 1.237 eV
Transition (v -> c):
  (s=0, k=0, n=2, [0.00, 0.00, 0.00]) -> (s=0, k=0, n=3, [0.00, 0.00, 0.00])

Forces in eV/Ang:
  0 Na    0.07638   -0.06453    0.02762
  1 Na    0.01706   -0.01215    0.03928
  2 Na   -0.05638    0.05425    0.07567
  3 Na   -0.02594    0.01540   -0.10369
  4 Na    0.02024   -0.01975   -0.03174
  5 Na   -0.03135    0.02681   -0.00728

System changes: positions 

Initializing position-dependent things.

Density initialized from wave functions
           .--------------------------------------.  
          /|                                      |  
         / |                                      |  
        /  |                                      |  
       /   |                                      |  
      /    |                                      |  
     /     |                                      |  
    /      |                                      |  
   /       |                                      |  
  /        |                                      |  
 *         |           Na                         |  
 |         |                                      |  
 |         |                Na                    |  
 |         |                                      |  
 |         |            Na                        |  
 |         |                    Na                |  
 |         |                                      |  
 |         |                 Na                   |  
 |         |                                      |  
 |         |             Na                       |  
 |         .--------------------------------------.  
 |        /                                      /   
 |       /                                      /    
 |      /                                      /     
 |     /                                      /      
 |    /                                      /       
 |   /                                      /        
 |  /                                      /         
 | /                                      /          
 |/                                      /           
 *--------------------------------------*            

Positions:
   0 Na    11.578086    4.916842    9.716529    ( 0.0000,  0.0000,  0.0000)
   1 Na     9.125413    7.111182   10.798105    ( 0.0000,  0.0000,  0.0000)
   2 Na     6.597264    9.372227   11.668001    ( 0.0000,  0.0000,  0.0000)
   3 Na     7.628128    8.042438    4.917368    ( 0.0000,  0.0000,  0.0000)
   4 Na     9.664837    6.423943    7.228565    ( 0.0000,  0.0000,  0.0000)
   5 Na     6.992354    8.744403    8.269379    ( 0.0000,  0.0000,  0.0000)

Unit cell:
           periodic     x           y           z      points  spacing
  1. axis:    no    16.000000    0.000000    0.000000    64     0.2500
  2. axis:    no     0.000000   16.000000    0.000000    64     0.2500
  3. axis:    no     0.000000    0.000000   16.000000    64     0.2500

  Lengths:  16.000000  16.000000  16.000000
  Angles:   90.000000  90.000000  90.000000

Effective grid spacing dv^(1/3) = 0.2500

                     log10-error:    total        iterations:
           time      wfs    density  energy       fermi  poisson
iter:   1  09:56:50  -0.78   +inf    -5.029908    5             
iter:   2  09:56:53  -1.92  -0.65    -4.983313    3             
iter:   3  09:56:56  -2.30  -0.71    -4.840201    5             
iter:   4  09:56:59  -3.36  -1.41    -4.839097    3             
iter:   5  09:57:02  -3.78  -1.50    -4.838375    3             
iter:   6  09:57:04  -3.79  -1.67    -4.837517    2             
iter:   7  09:57:07  -4.61  -2.09    -4.837497    1             
iter:   8  09:57:10  -4.98  -2.23    -4.837575    2             
iter:   9  09:57:13  -5.46  -2.39    -4.837588    2             
iter:  10  09:57:16  -5.85  -2.61    -4.837594    2             
iter:  11  09:57:18  -6.57  -3.06    -4.837593    1             
iter:  12  09:57:21  -6.79  -3.10    -4.837593    1             
iter:  13  09:57:24  -7.73  -3.46    -4.837593    1             
iter:  14  09:57:27  -7.73  -3.52    -4.837593    1             
iter:  15  09:57:30  -8.20  -3.60    -4.837593    1             
iter:  16  09:57:32  -8.83  -3.84    -4.837593    1             
iter:  17  09:57:35  -8.35  -3.90    -4.837593    1             
iter:  18  09:57:38  -9.19  -4.40    -4.837593    1             

Converged after 18 iterations.

Dipole moment: (0.028871, -0.016821, -0.015713) |e|*Ang

Energy contributions relative to reference atoms: (reference = -26511.662975)

Kinetic:         +6.907692
Potential:       -6.868385
External:        +0.000000
XC:              -4.877479
Entropy (-ST):   -0.000036
Local:           +0.000597
--------------------------
Free energy:     -4.837610
Extrapolated:    -4.837593

Fermi level: -2.27730

 Band  Eigenvalues  Occupancy
    0     -3.78094    2.00000
    1     -2.87536    1.99999
    2     -2.86597    1.99998
    3     -1.71401    0.00003
    4     -1.57392    0.00000
    5     -1.55317    0.00000
    6     -1.26107    0.00000
    7     -0.63471    0.00000
    8     -0.60943    0.00000
    9     -0.54968    0.00000
   10     -0.53879    0.00000
   11     -0.45114    0.00000
   12     -0.25462    0.00000
   13     -0.08712    0.00000
   14      0.25459    0.00000

Gap: 1.152 eV
Transition (v -> c):
  (s=0, k=0, n=2, [0.00, 0.00, 0.00]) -> (s=0, k=0, n=3, [0.00, 0.00, 0.00])

Forces in eV/Ang:
  0 Na   -0.04845    0.04085   -0.01830
  1 Na   -0.02151    0.01643   -0.03547
  2 Na    0.04029   -0.04025   -0.05622
  3 Na    0.01726   -0.01282    0.07477
  4 Na   -0.02346    0.02077    0.02694
  5 Na    0.03589   -0.02500    0.00831

System changes: positions 

Initializing position-dependent things.

Density initialized from wave functions
           .--------------------------------------.  
          /|                                      |  
         / |                                      |  
        /  |                                      |  
       /   |                                      |  
      /    |                                      |  
     /     |                                      |  
    /      |                                      |  
   /       |                                      |  
  /        |                                      |  
 *         |           Na                         |  
 |         |                                      |  
 |         |                Na                    |  
 |         |                                      |  
 |         |            Na                        |  
 |         |                    Na                |  
 |         |                                      |  
 |         |                Na                    |  
 |         |                                      |  
 |         |             Na                       |  
 |         .--------------------------------------.  
 |        /                                      /   
 |       /                                      /    
 |      /                                      /     
 |     /                                      /      
 |    /                                      /       
 |   /                                      /        
 |  /                                      /         
 | /                                      /          
 |/                                      /           
 *--------------------------------------*            

Positions:
   0 Na    11.539552    4.949067    9.699507    ( 0.0000,  0.0000,  0.0000)
   1 Na     9.074717    7.151667   10.736724    ( 0.0000,  0.0000,  0.0000)
   2 Na     6.643524    9.321835   11.597431    ( 0.0000,  0.0000,  0.0000)
   3 Na     7.644384    8.022662    5.005120    ( 0.0000,  0.0000,  0.0000)
   4 Na     9.612803    6.466361    7.271407    ( 0.0000,  0.0000,  0.0000)
   5 Na     7.071188    8.699415    8.287578    ( 0.0000,  0.0000,  0.0000)

Unit cell:
           periodic     x           y           z      points  spacing
  1. axis:    no    16.000000    0.000000    0.000000    64     0.2500
  2. axis:    no     0.000000   16.000000    0.000000    64     0.2500
  3. axis:    no     0.000000    0.000000   16.000000    64     0.2500

  Lengths:  16.000000  16.000000  16.000000
  Angles:   90.000000  90.000000  90.000000

Effective grid spacing dv^(1/3) = 0.2500

                     log10-error:    total        iterations:
           time      wfs    density  energy       fermi  poisson
iter:   1  09:57:43  -1.39   +inf    -4.901369    3             
iter:   2  09:57:45  -2.57  -0.94    -4.887570    2             
iter:   3  09:57:48  -2.83  -1.00    -4.848471    4             
iter:   4  09:57:51  -3.76  -1.64    -4.848374    2             
iter:   5  09:57:54  -4.34  -1.69    -4.847962    2             
iter:   6  09:57:57  -4.49  -1.96    -4.847831    1             
iter:   7  09:57:59  -5.03  -2.12    -4.847795    2             
iter:   8  09:58:02  -5.43  -2.36    -4.847810    2             
iter:   9  09:58:05  -5.64  -2.53    -4.847816    2             
iter:  10  09:58:08  -6.22  -2.97    -4.847819    1             
iter:  11  09:58:10  -6.98  -3.11    -4.847818    1             
iter:  12  09:58:13  -7.43  -3.14    -4.847818    1             
iter:  13  09:58:16  -7.37  -3.24    -4.847819    1             
iter:  14  09:58:19  -7.81  -3.40    -4.847819    1             
iter:  15  09:58:22  -8.05  -3.47    -4.847818    1             
iter:  16  09:58:24  -8.57  -3.68    -4.847818    1             
iter:  17  09:58:27  -8.75  -3.78    -4.847818    1             
iter:  18  09:58:30  -8.50  -3.88    -4.847818    1             
iter:  19  09:58:33  -9.15  -4.13    -4.847818    1             

Converged after 19 iterations.

Dipole moment: (0.005760, 0.001349, -0.015782) |e|*Ang

Energy contributions relative to reference atoms: (reference = -26511.662975)

Kinetic:         +9.172867
Potential:       -8.656774
External:        +0.000000
XC:              -5.364930
Entropy (-ST):   -0.000033
Local:           +0.001035
--------------------------
Free energy:     -4.847835
Extrapolated:    -4.847818

Fermi level: -2.27814

 Band  Eigenvalues  Occupancy
    0     -3.84723    2.00000
    1     -2.89065    1.99999
    2     -2.86470    1.99998
    3     -1.71246    0.00002
    4     -1.54385    0.00000
    5     -1.50588    0.00000
    6     -1.29711    0.00000
    7     -0.61160    0.00000
    8     -0.59752    0.00000
    9     -0.54441    0.00000
   10     -0.52850    0.00000
   11     -0.41745    0.00000
   12     -0.21475    0.00000
   13     -0.08261    0.00000
   14      0.26592    0.00000

Gap: 1.152 eV
Transition (v -> c):
  (s=0, k=0, n=2, [0.00, 0.00, 0.00]) -> (s=0, k=0, n=3, [0.00, 0.00, 0.00])

Forces in eV/Ang:
  0 Na   -0.03914    0.03318   -0.00906
  1 Na    0.04840   -0.04059    0.01597
  2 Na   -0.01203    0.01065    0.00406
  3 Na   -0.00641    0.00431   -0.00062
  4 Na    0.03947   -0.03411    0.00701
  5 Na   -0.03048    0.02671   -0.01743

System changes: positions 

Initializing position-dependent things.

Density initialized from wave functions
           .--------------------------------------.  
          /|                                      |  
         / |                                      |  
        /  |                                      |  
       /   |                                      |  
      /    |                                      |  
     /     |                                      |  
    /      |                                      |  
   /       |                                      |  
  /        |                                      |  
 *         |           Na                         |  
 |         |                                      |  
 |         |                Na                    |  
 |         |                                      |  
 |         |            Na                        |  
 |         |                    Na                |  
 |         |                                      |  
 |         |                 Na                   |  
 |         |                                      |  
 |         |             Na                       |  
 |         .--------------------------------------.  
 |        /                                      /   
 |       /                                      /    
 |      /                                      /     
 |     /                                      /      
 |    /                                      /       
 |   /                                      /        
 |  /                                      /         
 | /                                      /          
 |/                                      /           
 *--------------------------------------*            

Positions:
   0 Na    11.483313    4.995868    9.688759    ( 0.0000,  0.0000,  0.0000)
   1 Na     9.143235    7.093723   10.705909    ( 0.0000,  0.0000,  0.0000)
   2 Na     6.583232    9.355234   11.599515    ( 0.0000,  0.0000,  0.0000)
   3 Na     7.595275    8.017927    4.990443    ( 0.0000,  0.0000,  0.0000)
   4 Na     9.650504    6.417684    7.352642    ( 0.0000,  0.0000,  0.0000)
   5 Na     7.130140    8.731167    8.259141    ( 0.0000,  0.0000,  0.0000)

Unit cell:
           periodic     x           y           z      points  spacing
  1. axis:    no    16.000000    0.000000    0.000000    64     0.2500
  2. axis:    no     0.000000   16.000000    0.000000    64     0.2500
  3. axis:    no     0.000000    0.000000   16.000000    64     0.2500

  Lengths:  16.000000  16.000000  16.000000
  Angles:   90.000000  90.000000  90.000000

Effective grid spacing dv^(1/3) = 0.2500

                     log10-error:    total        iterations:
           time      wfs    density  energy       fermi  poisson
iter:   1  09:58:38  -1.47   +inf    -4.922201    2             
iter:   2  09:58:40  -2.79  -0.93    -4.896093    2             
iter:   3  09:58:43  -2.96  -1.00    -4.834642    2             
iter:   4  09:58:46  -3.98  -1.48    -4.834283    1             
iter:   5  09:58:49  -4.03  -1.56    -4.832828    2             
iter:   6  09:58:51  -4.56  -1.93    -4.832694    2             
iter:   7  09:58:54  -4.74  -2.02    -4.832832    1             
iter:   8  09:58:57  -5.31  -2.35    -4.832891    1             
iter:   9  09:59:00  -5.50  -2.56    -4.832896    2             
iter:  10  09:59:03  -6.65  -3.24    -4.832896    1             
iter:  11  09:59:05  -7.13  -3.27    -4.832896    1             
iter:  12  09:59:08  -8.13  -3.47    -4.832896    1             
iter:  13  09:59:11  -8.34  -3.52    -4.832895    1             
iter:  14  09:59:14  -8.67  -3.57    -4.832895    1             
iter:  15  09:59:17  -9.16  -3.67    -4.832895    1             
iter:  16  09:59:19  -8.74  -3.73    -4.832895    1             
iter:  17  09:59:22  -9.60  -3.81    -4.832895    1             
iter:  18  09:59:25  -8.10  -3.85    -4.832895    1             
iter:  19  09:59:28  -9.29  -4.04    -4.832895    1             

Converged after 19 iterations.

Dipole moment: (0.065063, -0.057224, -0.010790) |e|*Ang

Energy contributions relative to reference atoms: (reference = -26511.662975)

Kinetic:         +9.421761
Potential:       -8.845027
External:        +0.000000
XC:              -5.410308
Entropy (-ST):   -0.000038
Local:           +0.000697
--------------------------
Free energy:     -4.832914
Extrapolated:    -4.832895

Fermi level: -2.27215

 Band  Eigenvalues  Occupancy
    0     -3.85611    2.00000
    1     -2.91570    1.99999
    2     -2.83565    1.99997
    3     -1.71562    0.00003
    4     -1.54396    0.00000
    5     -1.49709    0.00000
    6     -1.30144    0.00000
    7     -0.62315    0.00000
    8     -0.61934    0.00000
    9     -0.53468    0.00000
   10     -0.51707    0.00000
   11     -0.39458    0.00000
   12     -0.20510    0.00000
   13     -0.08320    0.00000
   14      0.27062    0.00000

Gap: 1.120 eV
Transition (v -> c):
  (s=0, k=0, n=2, [0.00, 0.00, 0.00]) -> (s=0, k=0, n=3, [0.00, 0.00, 0.00])

Forces in eV/Ang:
  0 Na    0.07614   -0.06451    0.02704
  1 Na   -0.08779    0.08215    0.09290
  2 Na    0.05222   -0.04420   -0.03723
  3 Na    0.03688   -0.02832    0.03191
  4 Na   -0.04495    0.02858   -0.13831
  5 Na   -0.03270    0.02658    0.02369

System changes: positions 

Initializing position-dependent things.

Density initialized from wave functions
           .--------------------------------------.  
          /|                                      |  
         / |                                      |  
        /  |                                      |  
       /   |                                      |  
      /    |                                      |  
     /     |                                      |  
    /      |                                      |  
   /       |                                      |  
  /        |                                      |  
 *         |           Na                         |  
 |         |                                      |  
 |         |                Na                    |  
 |         |                                      |  
 |         |            Na                        |  
 |         |                    Na                |  
 |         |                                      |  
 |         |                Na                    |  
 |         |                                      |  
 |         |            Na                        |  
 |         .--------------------------------------.  
 |        /                                      /   
 |       /                                      /    
 |      /                                      /     
 |     /                                      /      
 |    /                                      /       
 |   /                                      /        
 |  /                                      /         
 | /                                      /          
 |/                                      /           
 *--------------------------------------*            

Positions:
   0 Na    11.527138    4.955022    9.739447    ( 0.0000,  0.0000,  0.0000)
   1 Na     9.100429    7.155655   10.862266    ( 0.0000,  0.0000,  0.0000)
   2 Na     6.509611    9.340429   11.477708    ( 0.0000,  0.0000,  0.0000)
   3 Na     7.512283    7.898666    5.038003    ( 0.0000,  0.0000,  0.0000)
   4 Na     9.624800    6.336323    7.241090    ( 0.0000,  0.0000,  0.0000)
   5 Na     7.308942    8.928838    8.232073    ( 0.0000,  0.0000,  0.0000)

Unit cell:
           periodic     x           y           z      points  spacing
  1. axis:    no    16.000000    0.000000    0.000000    64     0.2500
  2. axis:    no     0.000000   16.000000    0.000000    64     0.2500
  3. axis:    no     0.000000    0.000000   16.000000    64     0.2500

  Lengths:  16.000000  16.000000  16.000000
  Angles:   90.000000  90.000000  90.000000

Effective grid spacing dv^(1/3) = 0.2500

                     log10-error:    total        iterations:
           time      wfs    density  energy       fermi  poisson
iter:   1  09:59:32  -1.07   +inf    -4.909615    2             
iter:   2  09:59:35  -2.33  -0.89    -4.889118    2             
iter:   3  09:59:38  -2.88  -0.97    -4.841115    2             
iter:   4  09:59:41  -3.77  -1.38    -4.840815    2             
iter:   5  09:59:43  -3.85  -1.45    -4.840961    2             
iter:   6  09:59:46  -4.38  -1.82    -4.841292    2             
iter:   7  09:59:49  -4.46  -1.90    -4.841741    2             
iter:   8  09:59:52  -5.26  -2.23    -4.841775    1             
iter:   9  09:59:55  -5.11  -2.33    -4.841825    2             
iter:  10  09:59:57  -6.14  -2.88    -4.841823    1             
iter:  11  10:00:00  -6.58  -2.94    -4.841825    1             
iter:  12  10:00:03  -7.12  -3.06    -4.841826    1             
iter:  13  10:00:06  -7.55  -3.10    -4.841825    1             
iter:  14  10:00:09  -7.19  -3.21    -4.841823    1             
iter:  15  10:00:11  -7.83  -3.43    -4.841823    1             
iter:  16  10:00:14  -8.73  -3.51    -4.841823    1             
iter:  17  10:00:17  -8.42  -3.57    -4.841823    1             
iter:  18  10:00:20  -8.13  -3.65    -4.841823    1             
iter:  19  10:00:22  -8.79  -3.78    -4.841823    1             
iter:  20  10:00:25  -8.45  -3.84    -4.841823    1             
iter:  21  10:00:28  -9.41  -4.45    -4.841823    1             

Converged after 21 iterations.

Dipole moment: (-0.005700, -0.025729, -0.013367) |e|*Ang

Energy contributions relative to reference atoms: (reference = -26511.662975)

Kinetic:         +8.288481
Potential:       -7.971837
External:        +0.000000
XC:              -5.159283
Entropy (-ST):   -0.000025
Local:           +0.000828
--------------------------
Free energy:     -4.841836
Extrapolated:    -4.841823

Fermi level: -2.26733

 Band  Eigenvalues  Occupancy
    0     -3.81232    2.00000
    1     -2.88050    1.99999
    2     -2.87844    1.99999
    3     -1.68116    0.00002
    4     -1.57562    0.00000
    5     -1.54719    0.00000
    6     -1.27358    0.00000
    7     -0.62673    0.00000
    8     -0.60126    0.00000
    9     -0.57805    0.00000
   10     -0.52748    0.00000
   11     -0.39358    0.00000
   12     -0.22612    0.00000
   13     -0.08445    0.00000
   14      0.27677    0.00000

Gap: 1.197 eV
Transition (v -> c):
  (s=0, k=0, n=2, [0.00, 0.00, 0.00]) -> (s=0, k=0, n=3, [0.00, 0.00, 0.00])

Forces in eV/Ang:
  0 Na   -0.03235    0.02578   -0.00066
  1 Na    0.00157   -0.00503   -0.05133
  2 Na    0.02252   -0.00673    0.01419
  3 Na    0.01927   -0.00883   -0.00649
  4 Na   -0.00911    0.01437    0.03633
  5 Na   -0.00203   -0.01961    0.00797

System changes: positions 

Initializing position-dependent things.

Density initialized from wave functions
           .--------------------------------------.  
          /|                                      |  
         / |                                      |  
        /  |                                      |  
       /   |                                      |  
      /    |                                      |  
     /     |                                      |  
    /      |                                      |  
   /       |                                      |  
  /        |                                      |  
 *         |           Na                         |  
 |         |                                      |  
 |         |                Na                    |  
 |         |                                      |  
 |         |           Na                         |  
 |         |                    Na                |  
 |         |                                      |  
 |         |                 Na                   |  
 |         |                                      |  
 |         |             Na                       |  
 |         .--------------------------------------.  
 |        /                                      /   
 |       /                                      /    
 |      /                                      /     
 |     /                                      /      
 |    /                                      /       
 |   /                                      /        
 |  /                                      /         
 | /                                      /          
 |/                                      /           
 *--------------------------------------*            

Positions:
   0 Na    11.503561    4.981696    9.675924    ( 0.0000,  0.0000,  0.0000)
   1 Na     9.116963    7.113218   10.769723    ( 0.0000,  0.0000,  0.0000)
   2 Na     6.669400    9.316070   11.601619    ( 0.0000,  0.0000,  0.0000)
   3 Na     7.670348    8.056922    5.028562    ( 0.0000,  0.0000,  0.0000)
   4 Na     9.659923    6.450744    7.246018    ( 0.0000,  0.0000,  0.0000)
   5 Na     6.966460    8.691654    8.277688    ( 0.0000,  0.0000,  0.0000)

Unit cell:
           periodic     x           y           z      points  spacing
  1. axis:    no    16.000000    0.000000    0.000000    64     0.2500
  2. axis:    no     0.000000   16.000000    0.000000    64     0.2500
  3. axis:    no     0.000000    0.000000   16.000000    64     0.2500

  Lengths:  16.000000  16.000000  16.000000
  Angles:   90.000000  90.000000  90.000000

Effective grid spacing dv^(1/3) = 0.2500

                     log10-error:    total        iterations:
           time      wfs    density  energy       fermi  poisson
iter:   1  10:00:33  -1.01   +inf    -4.849568    2             
iter:   2  10:00:35  -2.22  -1.17    -4.849940    1             
iter:   3  10:00:38  -3.02  -1.20    -4.846472    1             
iter:   4  10:00:41  -3.83  -1.49    -4.847300    2             
iter:   5  10:00:44  -4.02  -1.55    -4.849383    2             
iter:   6  10:00:47  -4.56  -1.88    -4.850101    2             
iter:   7  10:00:49  -4.55  -2.00    -4.850535    2             
iter:   8  10:00:52  -5.43  -2.43    -4.850565    1             
iter:   9  10:00:55  -5.29  -2.49    -4.850601    2             
iter:  10  10:00:58  -6.85  -3.02    -4.850599    1             
iter:  11  10:01:01  -7.55  -3.10    -4.850599    1             
iter:  12  10:01:03  -7.40  -3.16    -4.850599    1             
iter:  13  10:01:06  -7.64  -3.36    -4.850600    1             
iter:  14  10:01:09  -7.85  -3.44    -4.850599    1             
iter:  15  10:01:12  -8.30  -3.59    -4.850599    1             
iter:  16  10:01:15  -8.08  -3.66    -4.850599    1             
iter:  17  10:01:17  -8.83  -3.97    -4.850599    1             
iter:  18  10:01:20  -8.78  -4.03    -4.850599    1             

Converged after 18 iterations.

Dipole moment: (0.027244, -0.010510, -0.014153) |e|*Ang

Energy contributions relative to reference atoms: (reference = -26511.662975)

Kinetic:         +9.011197
Potential:       -8.551070
External:        +0.000000
XC:              -5.311781
Entropy (-ST):   -0.000023
Local:           +0.001066
--------------------------
Free energy:     -4.850611
Extrapolated:    -4.850599

Fermi level: -2.26975

 Band  Eigenvalues  Occupancy
    0     -3.83006    2.00000
    1     -2.89117    1.99999
    2     -2.88375    1.99999
    3     -1.67934    0.00001
    4     -1.56337    0.00000
    5     -1.54100    0.00000
    6     -1.28970    0.00000
    7     -0.61070    0.00000
    8     -0.60119    0.00000
    9     -0.54874    0.00000
   10     -0.51453    0.00000
   11     -0.42687    0.00000
   12     -0.22676    0.00000
   13     -0.07751    0.00000
   14      0.27279    0.00000

Gap: 1.204 eV
Transition (v -> c):
  (s=0, k=0, n=2, [0.00, 0.00, 0.00]) -> (s=0, k=0, n=3, [0.00, 0.00, 0.00])

Forces in eV/Ang:
  0 Na    0.01169   -0.00943    0.00295
  1 Na   -0.01219    0.00920   -0.01485
  2 Na   -0.00428    0.00070    0.00168
  3 Na   -0.00485    0.00026   -0.00994
  4 Na   -0.01236    0.00961    0.01087
  5 Na    0.02212   -0.01002    0.00934

System changes: positions 

Initializing position-dependent things.

Density initialized from wave functions
           .--------------------------------------.  
          /|                                      |  
         / |                                      |  
        /  |                                      |  
       /   |                                      |  
      /    |                                      |  
     /     |                                      |  
    /      |                                      |  
   /       |                                      |  
  /        |                                      |  
 *         |           Na                         |  
 |         |                                      |  
 |         |                Na                    |  
 |         |                                      |  
 |         |            Na                        |  
 |         |                    Na                |  
 |         |                                      |  
 |         |                Na                    |  
 |         |                                      |  
 |         |             Na                       |  
 |         .--------------------------------------.  
 |        /                                      /   
 |       /                                      /    
 |      /                                      /     
 |     /                                      /      
 |    /                                      /       
 |   /                                      /        
 |  /                                      /         
 | /                                      /          
 |/                                      /           
 *--------------------------------------*            

Positions:
   0 Na    11.437330    5.020584    9.776620    ( 0.0000,  0.0000,  0.0000)
   1 Na     9.096889    7.149732   10.749785    ( 0.0000,  0.0000,  0.0000)
   2 Na     6.657164    9.310136   11.602455    ( 0.0000,  0.0000,  0.0000)
   3 Na     7.659733    7.840206    4.955892    ( 0.0000,  0.0000,  0.0000)
   4 Na     9.604577    6.389156    7.243073    ( 0.0000,  0.0000,  0.0000)
   5 Na     7.126246    8.904110    8.262939    ( 0.0000,  0.0000,  0.0000)

Unit cell:
           periodic     x           y           z      points  spacing
  1. axis:    no    16.000000    0.000000    0.000000    64     0.2500
  2. axis:    no     0.000000   16.000000    0.000000    64     0.2500
  3. axis:    no     0.000000    0.000000   16.000000    64     0.2500

  Lengths:  16.000000  16.000000  16.000000
  Angles:   90.000000  90.000000  90.000000

Effective grid spacing dv^(1/3) = 0.2500

                     log10-error:    total        iterations:
           time      wfs    density  energy       fermi  poisson
iter:   1  10:01:25  -1.25   +inf    -4.845555    2             
iter:   2  10:01:27  -2.46  -1.25    -4.845428    1             
iter:   3  10:01:30  -3.26  -1.28    -4.841712    1             
iter:   4  10:01:33  -4.19  -1.68    -4.841746    1             
iter:   5  10:01:36  -4.46  -1.73    -4.842348    1             
iter:   6  10:01:38  -4.88  -1.98    -4.842698    1             
iter:   7  10:01:41  -4.85  -2.11    -4.842982    2             
iter:   8  10:01:44  -5.87  -2.57    -4.842995    1             
iter:   9  10:01:47  -5.55  -2.61    -4.843021    1             
iter:  10  10:01:50  -7.25  -3.29    -4.843021    1             
iter:  11  10:01:52  -7.73  -3.43    -4.843021    1             
iter:  12  10:01:55  -7.95  -3.49    -4.843021    1             
iter:  13  10:01:58  -7.98  -3.65    -4.843021    1             
iter:  14  10:02:01  -8.66  -3.94    -4.843021    1             
iter:  15  10:02:04  -9.48  -4.07    -4.843021    1             

Converged after 15 iterations.

Dipole moment: (-0.009898, -0.002123, -0.013593) |e|*Ang

Energy contributions relative to reference atoms: (reference = -26511.662975)

Kinetic:         +9.042669
Potential:       -8.572555
External:        +0.000000
XC:              -5.314138
Entropy (-ST):   -0.000027
Local:           +0.001016
--------------------------
Free energy:     -4.843034
Extrapolated:    -4.843021

Fermi level: -2.27624

 Band  Eigenvalues  Occupancy
    0     -3.83095    2.00000
    1     -2.89905    1.99999
    2     -2.87487    1.99999
    3     -1.69702    0.00002
    4     -1.55626    0.00000
    5     -1.53145    0.00000
    6     -1.28938    0.00000
    7     -0.61055    0.00000
    8     -0.59137    0.00000
    9     -0.56350    0.00000
   10     -0.50842    0.00000
   11     -0.43829    0.00000
   12     -0.22161    0.00000
   13     -0.07837    0.00000
   14      0.25942    0.00000

Gap: 1.178 eV
Transition (v -> c):
  (s=0, k=0, n=2, [0.00, 0.00, 0.00]) -> (s=0, k=0, n=3, [0.00, 0.00, 0.00])

Forces in eV/Ang:
  0 Na    0.03460   -0.03298   -0.01411
  1 Na   -0.01677    0.01582   -0.00550
  2 Na   -0.01585    0.02145   -0.00457
  3 Na   -0.02446    0.03385    0.03080
  4 Na    0.00589    0.00053    0.03537
  5 Na    0.01666   -0.03860   -0.04181

System changes: positions 

Initializing position-dependent things.

Density initialized from wave functions
           .--------------------------------------.  
          /|                                      |  
         / |                                      |  
        /  |                                      |  
       /   |                                      |  
      /    |                                      |  
     /     |                                      |  
    /      |                                      |  
   /       |                                      |  
  /        |                                      |  
 *         |           Na                         |  
 |         |                                      |  
 |         |                Na                    |  
 |         |                                      |  
 |         |            Na                        |  
 |         |                    Na                |  
 |         |                                      |  
 |         |                Na                    |  
 |         |                                      |  
 |         |             Na                       |  
 |         .--------------------------------------.  
 |        /                                      /   
 |       /                                      /    
 |      /                                      /     
 |     /                                      /      
 |    /                                      /       
 |   /                                      /        
 |  /                                      /         
 | /                                      /          
 |/                                      /           
 *--------------------------------------*            

Positions:
   0 Na    11.485247    4.951581    9.777338    ( 0.0000,  0.0000,  0.0000)
   1 Na     9.042453    7.211638   10.735166    ( 0.0000,  0.0000,  0.0000)
   2 Na     6.671995    9.372432   11.626574    ( 0.0000,  0.0000,  0.0000)
   3 Na     7.637440    7.850564    5.039937    ( 0.0000,  0.0000,  0.0000)
   4 Na     9.631279    6.354903    7.329848    ( 0.0000,  0.0000,  0.0000)
   5 Na     7.110734    8.874347    8.078832    ( 0.0000,  0.0000,  0.0000)

Unit cell:
           periodic     x           y           z      points  spacing
  1. axis:    no    16.000000    0.000000    0.000000    64     0.2500
  2. axis:    no     0.000000   16.000000    0.000000    64     0.2500
  3. axis:    no     0.000000    0.000000   16.000000    64     0.2500

  Lengths:  16.000000  16.000000  16.000000
  Angles:   90.000000  90.000000  90.000000

Effective grid spacing dv^(1/3) = 0.2500

                     log10-error:    total        iterations:
           time      wfs    density  energy       fermi  poisson
iter:   1  10:02:08  -1.44   +inf    -4.866123    2             
iter:   2  10:02:11  -2.73  -1.08    -4.856817    2             
iter:   3  10:02:14  -3.18  -1.14    -4.832424    2             
iter:   4  10:02:16  -4.15  -1.48    -4.832548    1             
iter:   5  10:02:19  -4.07  -1.55    -4.832774    2             
iter:   6  10:02:22  -4.61  -1.89    -4.832928    1             
iter:   7  10:02:25  -4.69  -2.00    -4.833367    2             
iter:   8  10:02:28  -5.51  -2.47    -4.833395    1             
iter:   9  10:02:30  -5.73  -2.56    -4.833406    1             
iter:  10  10:02:33  -6.97  -3.13    -4.833404    1             
iter:  11  10:02:36  -7.35  -3.17    -4.833405    1             
iter:  12  10:02:39  -7.99  -3.29    -4.833405    1             
iter:  13  10:02:41  -7.96  -3.34    -4.833404    1             
iter:  14  10:02:44  -8.36  -3.45    -4.833404    1             
iter:  15  10:02:47  -8.54  -3.51    -4.833404    1             
iter:  16  10:02:50  -8.92  -3.59    -4.833404    1             
iter:  17  10:02:53  -8.55  -3.64    -4.833404    1             
iter:  18  10:02:55  -9.43  -3.80    -4.833404    1             
iter:  19  10:02:58  -8.53  -3.85    -4.833404    1             
iter:  20  10:03:01  -9.45  -4.23    -4.833404    1             

Converged after 20 iterations.

Dipole moment: (0.014221, -0.024421, -0.054149) |e|*Ang

Energy contributions relative to reference atoms: (reference = -26511.662975)

Kinetic:         +8.987647
Potential:       -8.522916
External:        +0.000000
XC:              -5.299048
Entropy (-ST):   -0.000027
Local:           +0.000926
--------------------------
Free energy:     -4.833418
Extrapolated:    -4.833404

Fermi level: -2.27046

 Band  Eigenvalues  Occupancy
    0     -3.83107    2.00000
    1     -2.90763    1.99999
    2     -2.85994    1.99998
    3     -1.69084    0.00002
    4     -1.57993    0.00000
    5     -1.51246    0.00000
    6     -1.28930    0.00000
    7     -0.61213    0.00000
    8     -0.60186    0.00000
    9     -0.56247    0.00000
   10     -0.51252    0.00000
   11     -0.42650    0.00000
   12     -0.22052    0.00000
   13     -0.08072    0.00000
   14      0.27576    0.00000

Gap: 1.169 eV
Transition (v -> c):
  (s=0, k=0, n=2, [0.00, 0.00, 0.00]) -> (s=0, k=0, n=3, [0.00, 0.00, 0.00])

Forces in eV/Ang:
  0 Na   -0.01593    0.01320    0.00412
  1 Na    0.02364   -0.01987   -0.01177
  2 Na   -0.00962    0.01238   -0.07370
  3 Na    0.00256   -0.01265   -0.08882
  4 Na    0.00690   -0.00413    0.00433
  5 Na   -0.00753    0.01109    0.16580

System changes: positions 

Initializing position-dependent things.

Density initialized from wave functions
           .--------------------------------------.  
          /|                                      |  
         / |                                      |  
        /  |                                      |  
       /   |                                      |  
      /    |                                      |  
     /     |                                      |  
    /      |                                      |  
   /       |                                      |  
  /        |                                      |  
 *         |           Na                         |  
 |         |                                      |  
 |         |                Na                    |  
 |         |                                      |  
 |         |            Na                        |  
 |         |                    Na                |  
 |         |                                      |  
 |         |                Na                    |  
 |         |                                      |  
 |         |             Na                       |  
 |         .--------------------------------------.  
 |        /                                      /   
 |       /                                      /    
 |      /                                      /     
 |     /                                      /      
 |    /                                      /       
 |   /                                      /        
 |  /                                      /         
 | /                                      /          
 |/                                      /           
 *--------------------------------------*            

Positions:
   0 Na    11.496021    5.047378    9.672406    ( 0.0000,  0.0000,  0.0000)
   1 Na     9.164568    7.045441   10.812776    ( 0.0000,  0.0000,  0.0000)
   2 Na     6.547201    9.203802   11.681624    ( 0.0000,  0.0000,  0.0000)
   3 Na     7.602889    8.057239    5.036649    ( 0.0000,  0.0000,  0.0000)
   4 Na     9.571049    6.503131    7.132006    ( 0.0000,  0.0000,  0.0000)
   5 Na     7.210399    8.752072    8.268198    ( 0.0000,  0.0000,  0.0000)

Unit cell:
           periodic     x           y           z      points  spacing
  1. axis:    no    16.000000    0.000000    0.000000    64     0.2500
  2. axis:    no     0.000000   16.000000    0.000000    64     0.2500
  3. axis:    no     0.000000    0.000000   16.000000    64     0.2500

  Lengths:  16.000000  16.000000  16.000000
  Angles:   90.000000  90.000000  90.000000

Effective grid spacing dv^(1/3) = 0.2500

                     log10-error:    total        iterations:
           time      wfs    density  energy       fermi  poisson
iter:   1  10:03:05  -0.94   +inf    -4.837713    2             
iter:   2  10:03:08  -2.16  -0.98    -4.836300    2             
iter:   3  10:03:11  -2.84  -1.01    -4.821600    1             
iter:   4  10:03:14  -3.71  -1.39    -4.822116    1             
iter:   5  10:03:17  -4.06  -1.46    -4.823767    2             
iter:   6  10:03:19  -4.43  -1.69    -4.825014    2             
iter:   7  10:03:22  -4.44  -1.85    -4.825898    2             
iter:   8  10:03:25  -5.43  -2.31    -4.825949    1             
iter:   9  10:03:28  -5.24  -2.37    -4.825988    1             
iter:  10  10:03:31  -6.56  -2.89    -4.825990    1             
iter:  11  10:03:33  -7.67  -3.19    -4.825990    1             
iter:  12  10:03:36  -7.47  -3.22    -4.825991    1             
iter:  13  10:03:39  -7.76  -3.44    -4.825991    1             
iter:  14  10:03:42  -8.22  -3.57    -4.825991    1             
iter:  15  10:03:44  -8.70  -3.70    -4.825991    1             
iter:  16  10:03:47  -9.12  -3.82    -4.825991    1             
iter:  17  10:03:50  -9.35  -3.91    -4.825991    1             
iter:  18  10:03:53  -9.52  -3.97    -4.825991    1             
iter:  19  10:03:56  -9.37  -4.02    -4.825991    1             

Converged after 19 iterations.

Dipole moment: (-0.006708, -0.007639, -0.105069) |e|*Ang

Energy contributions relative to reference atoms: (reference = -26511.662975)

Kinetic:         +9.221721
Potential:       -8.702077
External:        +0.000000
XC:              -5.346620
Entropy (-ST):   -0.000035
Local:           +0.001002
--------------------------
Free energy:     -4.826009
Extrapolated:    -4.825991

Fermi level: -2.26882

 Band  Eigenvalues  Occupancy
    0     -3.84205    2.00000
    1     -2.93568    2.00000
    2     -2.83292    1.99997
    3     -1.70702    0.00003
    4     -1.56296    0.00000
    5     -1.51357    0.00000
    6     -1.29588    0.00000
    7     -0.59643    0.00000
    8     -0.59359    0.00000
    9     -0.57423    0.00000
   10     -0.53375    0.00000
   11     -0.41626    0.00000
   12     -0.21490    0.00000
   13     -0.08012    0.00000
   14      0.25724    0.00000

Gap: 1.126 eV
Transition (v -> c):
  (s=0, k=0, n=2, [0.00, 0.00, 0.00]) -> (s=0, k=0, n=3, [0.00, 0.00, 0.00])

Forces in eV/Ang:
  0 Na    0.03003   -0.02937   -0.05619
  1 Na   -0.08287    0.06750   -0.00647
  2 Na    0.04470   -0.02877   -0.07273
  3 Na   -0.03565    0.02730   -0.08547
  4 Na    0.09978   -0.07957    0.09629
  5 Na   -0.05592    0.04290    0.12459

System changes: positions 

Initializing position-dependent things.

Density initialized from wave functions
           .--------------------------------------.  
          /|                                      |  
         / |                                      |  
        /  |                                      |  
       /   |                                      |  
      /    |                                      |  
     /     |                                      |  
    /      |                                      |  
   /       |                                      |  
  /        |                                      |  
 *         |           Na                         |  
 |         |                                      |  
 |         |                Na                    |  
 |         |                                      |  
 |         |            Na                        |  
 |         |                    Na                |  
 |         |                                      |  
 |         |                 Na                   |  
 |         |                                      |  
 |         |            Na                        |  
 |         .--------------------------------------.  
 |        /                                      /   
 |       /                                      /    
 |      /                                      /     
 |     /                                      /      
 |    /                                      /       
 |   /                                      /        
 |  /                                      /         
 | /                                      /          
 |/                                      /           
 *--------------------------------------*            

Positions:
   0 Na    11.538464    5.077276    9.516095    ( 0.0000,  0.0000,  0.0000)
   1 Na     9.065864    7.080771   10.854827    ( 0.0000,  0.0000,  0.0000)
   2 Na     6.564406    8.996034   11.706244    ( 0.0000,  0.0000,  0.0000)
   3 Na     7.514877    8.199422    4.943673    ( 0.0000,  0.0000,  0.0000)
   4 Na     9.700549    6.438737    7.168771    ( 0.0000,  0.0000,  0.0000)
   5 Na     7.216094    8.813459    8.423211    ( 0.0000,  0.0000,  0.0000)

Unit cell:
           periodic     x           y           z      points  spacing
  1. axis:    no    16.000000    0.000000    0.000000    64     0.2500
  2. axis:    no     0.000000   16.000000    0.000000    64     0.2500
  3. axis:    no     0.000000    0.000000   16.000000    64     0.2500

  Lengths:  16.000000  16.000000  16.000000
  Angles:   90.000000  90.000000  90.000000

Effective grid spacing dv^(1/3) = 0.2500

                     log10-error:    total        iterations:
           time      wfs    density  energy       fermi  poisson
iter:   1  10:04:00  -0.98   +inf    -5.047930    2             
iter:   2  10:04:03  -2.21  -0.69    -4.979015    2             
iter:   3  10:04:06  -2.59  -0.78    -4.823889    2             
iter:   4  10:04:09  -3.47  -1.27    -4.821166    2             
iter:   5  10:04:11  -3.52  -1.32    -4.817419    2             
iter:   6  10:04:14  -4.20  -1.73    -4.817505    2             
iter:   7  10:04:17  -4.30  -1.78    -4.818001    2             
iter:   8  10:04:20  -5.04  -2.12    -4.818037    2             
iter:   9  10:04:22  -5.28  -2.32    -4.818097    2             
iter:  10  10:04:25  -6.02  -2.59    -4.818083    1             
iter:  11  10:04:28  -6.76  -2.84    -4.818083    1             
iter:  12  10:04:31  -6.47  -2.91    -4.818085    1             
iter:  13  10:04:34  -7.79  -3.16    -4.818084    1             
iter:  14  10:04:36  -7.58  -3.21    -4.818082    1             
iter:  15  10:04:39  -7.58  -3.33    -4.818081    1             
iter:  16  10:04:42  -8.60  -3.45    -4.818081    1             
iter:  17  10:04:45  -7.90  -3.49    -4.818081    1             
iter:  18  10:04:48  -8.69  -3.86    -4.818081    1             
iter:  19  10:04:50  -9.25  -3.93    -4.818081    1             
iter:  20  10:04:53  -8.96  -3.99    -4.818081    1             
iter:  21  10:04:56  -9.79  -4.09    -4.818081    1             

Converged after 21 iterations.

Dipole moment: (-0.028741, 0.009240, 0.044961) |e|*Ang

Energy contributions relative to reference atoms: (reference = -26511.662975)

Kinetic:         +8.685410
Potential:       -8.278016
External:        +0.000000
XC:              -5.226418
Entropy (-ST):   -0.000036
Local:           +0.000961
--------------------------
Free energy:     -4.818100
Extrapolated:    -4.818081

Fermi level: -2.27383

 Band  Eigenvalues  Occupancy
    0     -3.82633    2.00000
    1     -2.92554    2.00000
    2     -2.83932    1.99998
    3     -1.71176    0.00003
    4     -1.58666    0.00000
    5     -1.51162    0.00000
    6     -1.28590    0.00000
    7     -0.62534    0.00000
    8     -0.58810    0.00000
    9     -0.55899    0.00000
   10     -0.53033    0.00000
   11     -0.40947    0.00000
   12     -0.24284    0.00000
   13     -0.08143    0.00000
   14      0.23634    0.00000

Gap: 1.128 eV
Transition (v -> c):
  (s=0, k=0, n=2, [0.00, 0.00, 0.00]) -> (s=0, k=0, n=3, [0.00, 0.00, 0.00])

Forces in eV/Ang:
  0 Na    0.02914   -0.02326    0.05665
  1 Na    0.09239   -0.07730   -0.05722
  2 Na   -0.06114    0.05341    0.04748
  3 Na    0.04247   -0.01996    0.13127
  4 Na   -0.09947    0.08516   -0.04505
  5 Na   -0.00341   -0.01805   -0.13336

System changes: positions 

Initializing position-dependent things.

Density initialized from wave functions
           .--------------------------------------.  
          /|                                      |  
         / |                                      |  
        /  |                                      |  
       /   |                                      |  
      /    |                                      |  
     /     |                                      |  
    /      |                                      |  
   /       |                                      |  
  /        |                                      |  
 *         |          Na                          |  
 |         |                                      |  
 |         |                Na                    |  
 |         |                                      |  
 |         |            Na                        |  
 |         |                     Na               |  
 |         |                                      |  
 |         |                 Na                   |  
 |         |             Na                       |  
 |         |                                      |  
 |         .--------------------------------------.  
 |        /                                      /   
 |       /                                      /    
 |      /                                      /     
 |     /                                      /      
 |    /                                      /       
 |   /                                      /        
 |  /                                      /         
 | /                                      /          
 |/                                      /           
 *--------------------------------------*            

Positions:
   0 Na    11.660589    5.008287    9.509950    ( 0.0000,  0.0000,  0.0000)
   1 Na     9.138990    6.991802   10.730050    ( 0.0000,  0.0000,  0.0000)
   2 Na     6.489179    8.973462   11.742348    ( 0.0000,  0.0000,  0.0000)
   3 Na     7.542501    8.248334    5.097840    ( 0.0000,  0.0000,  0.0000)
   4 Na     9.638996    6.523716    7.177922    ( 0.0000,  0.0000,  0.0000)
   5 Na     7.134357    8.858319    8.359112    ( 0.0000,  0.0000,  0.0000)

Unit cell:
           periodic     x           y           z      points  spacing
  1. axis:    no    16.000000    0.000000    0.000000    64     0.2500
  2. axis:    no     0.000000   16.000000    0.000000    64     0.2500
  3. axis:    no     0.000000    0.000000   16.000000    64     0.2500

  Lengths:  16.000000  16.000000  16.000000
  Angles:   90.000000  90.000000  90.000000

Effective grid spacing dv^(1/3) = 0.2500

                     log10-error:    total        iterations:
           time      wfs    density  energy       fermi  poisson
iter:   1  10:05:01  -1.11   +inf    -4.948399    3             
iter:   2  10:05:03  -2.31  -0.85    -4.920961    2             
iter:   3  10:05:06  -2.80  -0.91    -4.848575    2             
iter:   4  10:05:09  -3.67  -1.36    -4.847619    1             
iter:   5  10:05:12  -3.83  -1.44    -4.845867    1             
iter:   6  10:05:15  -4.42  -1.82    -4.845840    1             
iter:   7  10:05:17  -4.47  -1.90    -4.846224    1             
iter:   8  10:05:20  -5.31  -2.30    -4.846260    1             
iter:   9  10:05:23  -5.34  -2.44    -4.846292    1             
iter:  10  10:05:26  -6.61  -2.84    -4.846287    1             
iter:  11  10:05:29  -6.59  -2.91    -4.846285    1             
iter:  12  10:05:31  -7.69  -3.40    -4.846284    1             
iter:  13  10:05:34  -8.33  -3.45    -4.846284    1             
iter:  14  10:05:37  -7.86  -3.47    -4.846284    1             
iter:  15  10:05:40  -8.75  -3.66    -4.846284    1             
iter:  16  10:05:43  -8.95  -3.71    -4.846284    1             
iter:  17  10:05:45  -8.46  -3.82    -4.846284    1             
iter:  18  10:05:48  -9.08  -4.24    -4.846284    1             

Converged after 18 iterations.

Dipole moment: (0.027987, -0.032300, -0.018897) |e|*Ang

Energy contributions relative to reference atoms: (reference = -26511.662975)

Kinetic:         +8.420040
Potential:       -8.069185
External:        +0.000000
XC:              -5.197955
Entropy (-ST):   -0.000030
Local:           +0.000831
--------------------------
Free energy:     -4.846299
Extrapolated:    -4.846284

Fermi level: -2.27332

 Band  Eigenvalues  Occupancy
    0     -3.82156    2.00000
    1     -2.88939    1.99999
    2     -2.86643    1.99999
    3     -1.70002    0.00002
    4     -1.55732    0.00000
    5     -1.53907    0.00000
    6     -1.28090    0.00000
    7     -0.62209    0.00000
    8     -0.61579    0.00000
    9     -0.55682    0.00000
   10     -0.51926    0.00000
   11     -0.39496    0.00000
   12     -0.23631    0.00000
   13     -0.08404    0.00000
   14      0.26233    0.00000

Gap: 1.166 eV
Transition (v -> c):
  (s=0, k=0, n=2, [0.00, 0.00, 0.00]) -> (s=0, k=0, n=3, [0.00, 0.00, 0.00])

Forces in eV/Ang:
  0 Na   -0.02811    0.01837   -0.00936
  1 Na   -0.01635    0.01084   -0.00184
  2 Na    0.03509   -0.01468   -0.03344
  3 Na    0.01417   -0.00842   -0.02185
  4 Na    0.00380    0.00439    0.01415
  5 Na   -0.00852   -0.01042    0.05236

System changes: positions 

Initializing position-dependent things.

Density initialized from wave functions
           .--------------------------------------.  
          /|                                      |  
         / |                                      |  
        /  |                                      |  
       /   |                                      |  
      /    |                                      |  
     /     |                                      |  
    /      |                                      |  
   /       |                                      |  
  /        |                                      |  
 *         |           Na                         |  
 |         |                                      |  
 |         |                Na                    |  
 |         |                                      |  
 |         |            Na                        |  
 |         |                    Na                |  
 |         |                                      |  
 |         |                 Na                   |  
 |         |                                      |  
 |         |             Na                       |  
 |         .--------------------------------------.  
 |        /                                      /   
 |       /                                      /    
 |      /                                      /     
 |     /                                      /      
 |    /                                      /       
 |   /                                      /        
 |  /                                      /         
 | /                                      /          
 |/                                      /           
 *--------------------------------------*            

Positions:
   0 Na    11.538747    4.997461    9.641116    ( 0.0000,  0.0000,  0.0000)
   1 Na     9.115561    7.086667   10.773359    ( 0.0000,  0.0000,  0.0000)
   2 Na     6.589211    9.211850   11.619326    ( 0.0000,  0.0000,  0.0000)
   3 Na     7.600857    8.073245    5.028308    ( 0.0000,  0.0000,  0.0000)
   4 Na     9.637701    6.456665    7.229734    ( 0.0000,  0.0000,  0.0000)
   5 Na     7.109429    8.783839    8.311167    ( 0.0000,  0.0000,  0.0000)

Unit cell:
           periodic     x           y           z      points  spacing
  1. axis:    no    16.000000    0.000000    0.000000    64     0.2500
  2. axis:    no     0.000000   16.000000    0.000000    64     0.2500
  3. axis:    no     0.000000    0.000000   16.000000    64     0.2500

  Lengths:  16.000000  16.000000  16.000000
  Angles:   90.000000  90.000000  90.000000

Effective grid spacing dv^(1/3) = 0.2500

                     log10-error:    total        iterations:
           time      wfs    density  energy       fermi  poisson
iter:   1  10:05:53  -1.13   +inf    -4.855118    2             
iter:   2  10:05:56  -2.33  -1.16    -4.855291    2             
iter:   3  10:05:58  -3.12  -1.19    -4.849972    2             
iter:   4  10:06:01  -3.97  -1.55    -4.850089    1             
iter:   5  10:06:04  -4.39  -1.63    -4.850532    2             
iter:   6  10:06:07  -4.98  -1.95    -4.850800    1             
iter:   7  10:06:10  -4.89  -2.08    -4.851144    2             
iter:   8  10:06:12  -5.67  -2.48    -4.851178    1             
iter:   9  10:06:15  -5.59  -2.58    -4.851199    2             
iter:  10  10:06:18  -7.09  -3.10    -4.851197    1             
iter:  11  10:06:21  -6.90  -3.15    -4.851198    1             
iter:  12  10:06:23  -7.95  -3.45    -4.851197    1             
iter:  13  10:06:26  -8.52  -3.57    -4.851197    1             
iter:  14  10:06:29  -8.63  -3.63    -4.851197    1             
iter:  15  10:06:32  -9.12  -3.72    -4.851197    1             
iter:  16  10:06:35  -8.87  -3.79    -4.851197    1             
iter:  17  10:06:37  -9.52  -3.94    -4.851197    1             
iter:  18  10:06:40  -8.77  -3.97    -4.851197    1             
iter:  19  10:06:43  -9.68  -4.19    -4.851197    1             

Converged after 19 iterations.

Dipole moment: (0.016128, -0.017042, -0.011734) |e|*Ang

Energy contributions relative to reference atoms: (reference = -26511.662975)

Kinetic:         +9.004262
Potential:       -8.538892
External:        +0.000000
XC:              -5.317649
Entropy (-ST):   -0.000026
Local:           +0.001095
--------------------------
Free energy:     -4.851210
Extrapolated:    -4.851197

Fermi level: -2.27257

 Band  Eigenvalues  Occupancy
    0     -3.83398    2.00000
    1     -2.88601    1.99999
    2     -2.88222    1.99999
    3     -1.69049    0.00002
    4     -1.55453    0.00000
    5     -1.53407    0.00000
    6     -1.29095    0.00000
    7     -0.60805    0.00000
    8     -0.60378    0.00000
    9     -0.54747    0.00000
   10     -0.52349    0.00000
   11     -0.41616    0.00000
   12     -0.22606    0.00000
   13     -0.07952    0.00000
   14      0.26890    0.00000

Gap: 1.192 eV
Transition (v -> c):
  (s=0, k=0, n=2, [0.00, 0.00, 0.00]) -> (s=0, k=0, n=3, [0.00, 0.00, 0.00])

Forces in eV/Ang:
  0 Na    0.00197   -0.00299    0.00010
  1 Na   -0.00354    0.00230   -0.00839
  2 Na    0.00300    0.00185    0.00963
  3 Na    0.00569   -0.00213    0.00460
  4 Na   -0.00455    0.00573    0.00503
  5 Na   -0.00259   -0.00477   -0.01083

System changes: positions 

Initializing position-dependent things.

Density initialized from wave functions
           .--------------------------------------.  
          /|                                      |  
         / |                                      |  
        /  |                                      |  
       /   |                                      |  
      /    |                                      |  
     /     |                                      |  
    /      |                                      |  
   /       |                                      |  
  /        |                                      |  
 *         |                                      |  
 |         |          Na                          |  
 |         |                                      |  
 |         |       Na      Na                     |  
[...]
 |        /                                      /   
 |       /                                      /    
 |      /                                      /     
 |     /                                      /      
 |    /                                      /       
 |   /                                      /        
 |  /                                      /         
 | /                                      /          
 |/                                      /           
 *--------------------------------------*            

Positions:
   0 Na     8.265778    9.599790    8.690414    ( 0.0000,  0.0000,  0.0000)
   1 Na     6.390200    8.049491   11.007091    ( 0.0000,  0.0000,  0.0000)
   2 Na     4.942835    9.968932    8.318399    ( 0.0000,  0.0000,  0.0000)
   3 Na     7.190253    9.812272    5.514217    ( 0.0000,  0.0000,  0.0000)
   4 Na    10.029742    7.792925    6.472996    ( 0.0000,  0.0000,  0.0000)
   5 Na     9.499575    6.710139    9.847696    ( 0.0000,  0.0000,  0.0000)

Unit cell:
           periodic     x           y           z      points  spacing
  1. axis:    no    16.000000    0.000000    0.000000    64     0.2500
  2. axis:    no     0.000000   16.000000    0.000000    64     0.2500
  3. axis:    no     0.000000    0.000000   16.000000    64     0.2500

  Lengths:  16.000000  16.000000  16.000000
  Angles:   90.000000  90.000000  90.000000

Effective grid spacing dv^(1/3) = 0.2500

                     log10-error:    total        iterations:
           time      wfs    density  energy       fermi  poisson
iter:   1  10:09:03  -1.34   +inf    -4.912869    4             
iter:   2  10:09:06  -2.49  -1.07    -4.907769    2             
iter:   3  10:09:09  -2.95  -1.13    -4.887567    4             
iter:   4  10:09:11  -3.84  -1.68    -4.887394    2             
iter:   5  10:09:14  -4.37  -1.73    -4.886799    2             
iter:   6  10:09:17  -4.51  -1.97    -4.886850    2             
iter:   7  10:09:20  -4.66  -2.01    -4.886659    2             
iter:   8  10:09:23  -5.38  -2.43    -4.886658    2             
iter:   9  10:09:25  -5.50  -2.49    -4.886654    1             
iter:  10  10:09:28  -6.19  -2.91    -4.886656    1             
iter:  11  10:09:31  -6.81  -2.94    -4.886656    1             
iter:  12  10:09:34  -6.84  -2.97    -4.886659    2             
iter:  13  10:09:37  -7.38  -3.33    -4.886659    1             
iter:  14  10:09:39  -7.90  -3.41    -4.886659    1             
iter:  15  10:09:42  -7.55  -3.46    -4.886660    1             
iter:  16  10:09:45  -8.79  -3.72    -4.886660    1             
iter:  17  10:09:48  -8.91  -3.79    -4.886660    1             
iter:  18  10:09:50  -8.86  -3.88    -4.886660    1             
iter:  19  10:09:53  -9.17  -4.09    -4.886660    1             

Converged after 19 iterations.

Dipole moment: (-0.070728, -0.102047, -0.050790) |e|*Ang

Energy contributions relative to reference atoms: (reference = -26511.662975)

Kinetic:         +8.888220
Potential:       -8.304052
External:        +0.000000
XC:              -5.471087
Entropy (-ST):   -0.000058
Local:           +0.000289
--------------------------
Free energy:     -4.886689
Extrapolated:    -4.886660

Fermi level: -2.24616

 Band  Eigenvalues  Occupancy
    0     -3.93531    2.00000
    1     -2.81414    1.99998
    2     -2.81120    1.99998
    3     -1.71074    0.00004
    4     -1.55464    0.00000
    5     -1.53587    0.00000
    6     -1.22822    0.00000
    7     -0.69985    0.00000
    8     -0.68244    0.00000
    9     -0.33094    0.00000
   10     -0.29993    0.00000
   11     -0.24406    0.00000
   12     -0.20526    0.00000
   13     -0.11302    0.00000
   14      0.24305    0.00000

Gap: 1.100 eV
Transition (v -> c):
  (s=0, k=0, n=2, [0.00, 0.00, 0.00]) -> (s=0, k=0, n=3, [0.00, 0.00, 0.00])

Forces in eV/Ang:
  0 Na   -0.00404    0.00630   -0.00355
  1 Na   -0.00597    0.00265   -0.00311
  2 Na    0.00731   -0.00235    0.00096
  3 Na    0.00349   -0.00293    0.00660
  4 Na   -0.00580    0.00403   -0.00408
  5 Na    0.00506   -0.00763    0.00321

System changes: positions 

Initializing position-dependent things.

Density initialized from wave functions
           .--------------------------------------.  
          /|                                      |  
         / |                                      |  
        /  |                                      |  
       /   |                                      |  
      /    |                                      |  
     /     |                                      |  
    /      |                                      |  
   /       |                                      |  
  /        |                                      |  
 *         |           Na                         |  
 |         |                                      |  
 |         |                Na                    |  
 |         |                                      |  
 |         |            Na                        |  
 |         |                    Na                |  
 |         |                                      |  
 |         |                 Na                   |  
 |         |                                      |  
 |         |             Na                       |  
 |         .--------------------------------------.  
 |        /                                      /   
 |       /                                      /    
 |      /                                      /     
 |     /                                      /      
 |    /                                      /       
 |   /                                      /        
 |  /                                      /         
 | /                                      /          
 |/                                      /           
 *--------------------------------------*            

Positions:
   0 Na    11.538747    4.997461    9.641116    ( 0.0000,  0.0000,  0.0000)
   1 Na     9.115561    7.086667   10.773359    ( 0.0000,  0.0000,  0.0000)
   2 Na     6.589211    9.211850   11.619326    ( 0.0000,  0.0000,  0.0000)
   3 Na     7.600857    8.073245    5.028308    ( 0.0000,  0.0000,  0.0000)
   4 Na     9.637701    6.456665    7.229734    ( 0.0000,  0.0000,  0.0000)
   5 Na     7.109429    8.783839    8.311167    ( 0.0000,  0.0000,  0.0000)

Unit cell:
           periodic     x           y           z      points  spacing
  1. axis:    no    16.000000    0.000000    0.000000    64     0.2500
  2. axis:    no     0.000000   16.000000    0.000000    64     0.2500
  3. axis:    no     0.000000    0.000000   16.000000    64     0.2500

  Lengths:  16.000000  16.000000  16.000000
  Angles:   90.000000  90.000000  90.000000

Effective grid spacing dv^(1/3) = 0.2500

                     log10-error:    total        iterations:
           time      wfs    density  energy       fermi  poisson
iter:   1  10:09:58  +0.50   +inf   -10.111406    27            
iter:   2  10:10:00  -0.41  +0.04    -9.333590    5             
iter:   3  10:10:03  -1.11  +0.01    -6.404197    10            
iter:   4  10:10:06  -1.51  -0.16    -5.002693    10            
iter:   5  10:10:09  -2.30  -0.48    -4.930741    3             
iter:   6  10:10:12  -1.98  -0.54    -4.879587    9             
iter:   7  10:10:14  -2.95  -0.80    -4.872510    2             
iter:   8  10:10:17  -2.82  -0.89    -4.844134    4             
iter:   9  10:10:20  -3.74  -1.24    -4.847661    3             
iter:  10  10:10:23  -3.57  -1.32    -4.850975    2             
iter:  11  10:10:26  -4.28  -1.72    -4.851007    2             
iter:  12  10:10:28  -5.07  -1.86    -4.851074    1             
iter:  13  10:10:31  -5.55  -1.92    -4.851147    1             
iter:  14  10:10:34  -5.41  -2.01    -4.851089    2             
iter:  15  10:10:37  -6.19  -2.17    -4.851033    1             
iter:  16  10:10:40  -6.54  -2.21    -4.851030    1             
iter:  17  10:10:42  -5.19  -2.25    -4.851196    1             
iter:  18  10:10:45  -6.17  -2.73    -4.851198    2             
iter:  19  10:10:48  -6.43  -2.81    -4.851198    1             
iter:  20  10:10:51  -7.44  -3.10    -4.851197    1             
iter:  21  10:10:54  -7.49  -3.19    -4.851198    1             
iter:  22  10:10:56  -7.97  -3.39    -4.851198    1             
iter:  23  10:10:59  -8.35  -3.57    -4.851198    1             
iter:  24  10:11:02  -8.56  -3.69    -4.851197    1             
iter:  25  10:11:05  -9.42  -3.76    -4.851197    1             
iter:  26  10:11:08  -8.87  -3.81    -4.851197    1             
iter:  27  10:11:10  -9.27  -3.96    -4.851197    1             
iter:  28  10:11:13 -10.18  -4.10    -4.851197    1             

Converged after 28 iterations.

Dipole moment: (0.016060, -0.016979, -0.011797) |e|*Ang

Energy contributions relative to reference atoms: (reference = -26511.662975)

Kinetic:         +9.002155
Potential:       -8.537253
External:        +0.000000
XC:              -5.317493
Entropy (-ST):   -0.000026
Local:           +0.001407
--------------------------
Free energy:     -4.851210
Extrapolated:    -4.851197

Fermi level: -2.27258

 Band  Eigenvalues  Occupancy
    0     -3.83401    2.00000
    1     -2.88602    1.99999
    2     -2.88223    1.99999
    3     -1.69050    0.00002
    4     -1.55454    0.00000
    5     -1.53408    0.00000
    6     -1.29096    0.00000
    7     -0.60804    0.00000
    8     -0.60379    0.00000
    9     -0.54747    0.00000
   10     -0.52350    0.00000
   11     -0.41616    0.00000
   12     -0.22609    0.00000
   13     -0.07953    0.00000
   14      0.26900    0.00000

Gap: 1.192 eV
Transition (v -> c):
  (s=0, k=0, n=2, [0.00, 0.00, 0.00]) -> (s=0, k=0, n=3, [0.00, 0.00, 0.00])
System changes: positions 

Initializing position-dependent things.

Density initialized from wave functions
           .--------------------------------------.  
          /|                                      |  
         / |                                      |  
        /  |                                      |  
       /   |                                      |  
      /    |                                      |  
     /     |                                      |  
    /      |                                      |  
   /       |                                      |  
  /        |                                      |  
 *         |                                      |  
 |         |          Na                          |  
 |         |                                      |  
 |         |       Na      NNa                    |  
 |         |                                      |  
 |         |                                      |  
 |         |                                      |  
 |         |             Na   Na                  |  
 |         |                                      |  
 |         |                                      |  
 |         .--------------------------------------.  
 |        /                                      /   
 |       /                                      /    
 |      /                                      /     
 |     /                                      /      
 |    /                                      /       
 |   /                                      /        
 |  /                                      /         
 | /                                      /          
 |/                                      /           
 *--------------------------------------*            

Positions:
   0 Na     8.265778    9.599790    8.690414    ( 0.0000,  0.0000,  0.0000)
   1 Na     6.390200    8.049491   11.007091    ( 0.0000,  0.0000,  0.0000)
   2 Na     4.942835    9.968932    8.318399    ( 0.0000,  0.0000,  0.0000)
   3 Na     7.190253    9.812272    5.514217    ( 0.0000,  0.0000,  0.0000)
   4 Na    10.029742    7.792925    6.472996    ( 0.0000,  0.0000,  0.0000)
   5 Na     9.499575    6.710139    9.847696    ( 0.0000,  0.0000,  0.0000)

Unit cell:
           periodic     x           y           z      points  spacing
  1. axis:    no    16.000000    0.000000    0.000000    64     0.2500
  2. axis:    no     0.000000   16.000000    0.000000    64     0.2500
  3. axis:    no     0.000000    0.000000   16.000000    64     0.2500

  Lengths:  16.000000  16.000000  16.000000
  Angles:   90.000000  90.000000  90.000000

Effective grid spacing dv^(1/3) = 0.2500

                     log10-error:    total        iterations:
           time      wfs    density  energy       fermi  poisson
iter:   1  10:11:17  +0.32   +inf    -7.059610    23            
iter:   2  10:11:19  -0.64  -0.09    -6.717818    4             
iter:   3  10:11:22  -1.21  -0.12    -5.052245    25            
iter:   4  10:11:25  -1.97  -0.46    -5.002951    3             
iter:   5  10:11:28  -2.09  -0.51    -4.871750    7             
iter:   6  10:11:31  -2.59  -0.88    -4.908109    4             
iter:   7  10:11:33  -2.81  -0.92    -4.880939    4             
iter:   8  10:11:36  -3.61  -1.28    -4.883159    2             
iter:   9  10:11:39  -3.78  -1.36    -4.886448    3             
iter:  10  10:11:42  -4.27  -1.64    -4.886255    2             
iter:  11  10:11:45  -4.85  -1.80    -4.886326    2             
iter:  12  10:11:47  -4.99  -1.85    -4.886357    2             
iter:  13  10:11:50  -5.25  -1.99    -4.886513    2             
iter:  14  10:11:53  -5.96  -2.10    -4.886496    2             
iter:  15  10:11:56  -5.95  -2.16    -4.886502    2             
iter:  16  10:11:59  -6.40  -2.25    -4.886533    2             
iter:  17  10:12:01  -5.38  -2.30    -4.886659    2             
iter:  18  10:12:04  -6.44  -2.79    -4.886660    1             
iter:  19  10:12:07  -6.67  -2.88    -4.886660    1             
iter:  20  10:12:10  -7.57  -3.17    -4.886659    1             
iter:  21  10:12:13  -7.42  -3.23    -4.886660    1             
iter:  22  10:12:15  -8.30  -3.58    -4.886660    1             
iter:  23  10:12:18  -8.24  -3.63    -4.886660    1             
iter:  24  10:12:21  -8.97  -3.92    -4.886660    1             
iter:  25  10:12:24  -9.81  -3.98    -4.886660    1             
iter:  26  10:12:27  -8.74  -4.01    -4.886660    1             

Converged after 26 iterations.

Dipole moment: (-0.070760, -0.102018, -0.050849) |e|*Ang

Energy contributions relative to reference atoms: (reference = -26511.662975)

Kinetic:         +8.883230
Potential:       -8.299698
External:        +0.000000
XC:              -5.470449
Entropy (-ST):   -0.000058
Local:           +0.000287
--------------------------
Free energy:     -4.886689
Extrapolated:    -4.886660

Fermi level: -2.24619

 Band  Eigenvalues  Occupancy
    0     -3.93532    2.00000
    1     -2.81417    1.99998
    2     -2.81124    1.99998
    3     -1.71076    0.00004
    4     -1.55466    0.00000
    5     -1.53592    0.00000
    6     -1.22821    0.00000
    7     -0.69990    0.00000
    8     -0.68249    0.00000
    9     -0.33097    0.00000
   10     -0.29998    0.00000
   11     -0.24405    0.00000
   12     -0.20527    0.00000
   13     -0.11301    0.00000
   14      0.24304    0.00000

Gap: 1.100 eV
Transition (v -> c):
  (s=0, k=0, n=2, [0.00, 0.00, 0.00]) -> (s=0, k=0, n=3, [0.00, 0.00, 0.00])
Timing:                                      incl.     excl.
-------------------------------------------------------------------
Density initialized from wave functions:     5.217     5.216   0.4% |
 Symmetrize density:                         0.001     0.001   0.0% |
Forces:                                     16.219    16.219   1.4% ||
Hamiltonian:                                40.786     0.113   0.0% |
 Atomic:                                     5.756     0.019   0.0% |
  XC Correction:                             5.737     5.737   0.5% |
 Calculate atomic Hamiltonians:              3.617     3.617   0.3% |
 Communicate:                                0.000     0.000   0.0% |
 Initialize Hamiltonian:                     0.000     0.000   0.0% |
 Poisson:                                    0.236     0.236   0.0% |
 XC 3D grid:                                31.063    31.063   2.7% ||
LCAO initialization:                         0.093     0.016   0.0% |
 LCAO eigensolver:                           0.010     0.000   0.0% |
  Calculate projections:                     0.000     0.000   0.0% |
  DenseAtomicCorrection:                     0.000     0.000   0.0% |
  Distribute overlap matrix:                 0.000     0.000   0.0% |
  Orbital Layouts:                           0.000     0.000   0.0% |
  Potential matrix:                          0.010     0.010   0.0% |
 LCAO to grid:                               0.045     0.045   0.0% |
 Set positions (LCAO WFS):                   0.022     0.004   0.0% |
  Basic WFS set positions:                   0.000     0.000   0.0% |
  Basis functions set positions:             0.000     0.000   0.0% |
  P tci:                                     0.010     0.010   0.0% |
  ST tci:                                    0.003     0.003   0.0% |
  mktci:                                     0.005     0.005   0.0% |
PWDescriptor:                                0.012     0.012   0.0% |
Redistribute:                                0.012     0.012   0.0% |
SCF-cycle:                                1081.736     0.262   0.0% |
 Davidson:                                 136.860    26.852   2.3% ||
  Apply H:                                  21.400    20.393   1.8% ||
   HMM T:                                    1.007     1.007   0.1% |
  Subspace diag:                            26.712     0.053   0.0% |
   calc_h_matrix:                           23.431     2.029   0.2% |
    Apply H:                                21.402    20.351   1.8% ||
     HMM T:                                  1.051     1.051   0.1% |
   diagonalize:                              0.098     0.098   0.0% |
   rotate_psi:                               3.130     3.130   0.3% |
  calc. matrices:                           55.949    13.058   1.1% |
   Apply H:                                 42.890    40.844   3.5% ||
    HMM T:                                   2.046     2.046   0.2% |
  diagonalize:                               0.401     0.401   0.0% |
  rotate_psi:                                5.545     5.545   0.5% |
 Density:                                  114.577     0.009   0.0% |
  Atomic density matrices:                   0.323     0.323   0.0% |
  Mix:                                      97.617    97.617   8.4% |--|
  Multipole moments:                         0.084     0.084   0.0% |
  Pseudo density:                           16.543    16.533   1.4% ||
   Symmetrize density:                       0.010     0.010   0.0% |
 Hamiltonian:                              829.664     2.294   0.2% |
  Atomic:                                  116.792     0.377   0.0% |
   XC Correction:                          116.415   116.415  10.0% |---|
  Calculate atomic Hamiltonians:            75.451    75.451   6.5% |--|
  Communicate:                               0.005     0.005   0.0% |
  Poisson:                                   4.617     4.617   0.4% |
  XC 3D grid:                              630.505   630.505  54.4% |---------------------|
 Orthonormalize:                             0.374     0.003   0.0% |
  calc_s_matrix:                             0.065     0.065   0.0% |
  inverse-cholesky:                          0.006     0.006   0.0% |
  projections:                               0.217     0.217   0.0% |
  rotate_psi_s:                              0.083     0.083   0.0% |
Set symmetry:                                0.001     0.001   0.0% |
Other:                                      15.185    15.185   1.3% ||
-------------------------------------------------------------------
Total:                                              1159.260 100.0%

Memory usage: 586.30 MiB
Date: Thu Feb 13 10:12:27 2020
