
  ___ ___ ___ _ _ _  
 |   |   |_  | | | | 
 | | | | | . | | | | 
 |__ |  _|___|_____|  19.8.1
 |___|_|             

User:   ericlin@hebbe04-7
Date:   Mon Feb 10 17:56:18 2020
Arch:   x86_64
Pid:    6008
Python: 3.7.2
gpaw:   /apps/Hebbe7/software/MPI/GCC/8.2.0-2.31.1/OpenMPI/3.1.3/GPAW/19.8.1-Python-3.7.2-libvdwxc/lib/python3.7/site-packages/gpaw
_gpaw:  /apps/Hebbe7/software/MPI/GCC/8.2.0-2.31.1/OpenMPI/3.1.3/GPAW/19.8.1-Python-3.7.2-libvdwxc/bin/
        gpaw-python
ase:    /apps/Hebbe7/software/MPI/GCC/8.2.0-2.31.1/OpenMPI/3.1.3/ASE/3.18.0-Python-3.7.2/lib/python3.7/site-packages/ase (version 3.18.0)
numpy:  /apps/Hebbe7/software/MPI/GCC/8.2.0-2.31.1/OpenMPI/3.1.3/SciPy-bundle/2019.03/lib/python3.7/site-packages/numpy (version 1.16.2)
scipy:  /apps/Hebbe7/software/MPI/GCC/8.2.0-2.31.1/OpenMPI/3.1.3/SciPy-bundle/2019.03/lib/python3.7/site-packages/scipy (version 1.2.1)
libxc:  4.3.4
units:  Angstrom and eV
cores:  1

Input parameters:
  h: 0.25
  mode: {ecut: 350.0,
         gammacentered: False,
         name: pw}
  nbands: 15
  occupations: {name: fermi-dirac,
                width: 0.05}
  setups: {Na: 1}
  xc: vdW-DF-cx

System changes: positions, numbers, cell, pbc, initial_charges, initial_magmoms 

Initialize ...

Na-setup:
  name: Sodium
  id: 8dbce52902f3add137ce7d12431c9cac
  Z: 11
  valence: 1
  core: 10
  charge: 0.0
  file: /apps/Common/Core/GPAW-setups/0.9.20000/Na.1.PBE.gz
  compensation charges: gauss, rc=0.43, lmax=2
  cutoffs: 2.36(filt), 3.60(core),
  valence states:
                energy  radius
    3s(1.00)    -2.744   1.349
    3p(0.00)    -0.743   1.349
    *s          24.468   1.349

  Using partial waves for Na as LCAO basis

Reference energy: -26511.662975

Spin-paired calculation

Occupation numbers:
  Fermi-Dirac: width=0.0500 eV

Convergence criteria:
  Maximum total energy change: 0.0005 eV / electron
  Maximum integral of absolute density change: 0.0001 electrons
  Maximum integral of absolute eigenstate change: 4e-08 eV^2
  Maximum number of iterations: 333

Symmetries present (total): 1

  ( 1  0  0)
  ( 0  1  0)
  ( 0  0  1)

1 k-point (Gamma)
1 k-point in the irreducible part of the Brillouin zone
       k-points in crystal coordinates                weights
   0:     0.00000000    0.00000000    0.00000000          1/1

Wave functions: Plane wave expansion
  Cutoff energy: 350.000 eV
  Number of coefficients: 61037 (reduced to 30519)
  Pulay-stress correction: 0.000000 eV/Ang^3 (de/decut=0.000000)
  Using FFTW library
  ScaLapack parameters: grid=1x1, blocksize=None
  Wavefunction extrapolation:
    Improved wavefunction reuse through dual PAW basis 

Eigensolver
   Davidson(niter=2, smin=None, normalize=True) 

Densities:
  Coarse grid: 64*64*64 grid
  Fine grid: 128*128*128 grid
  Total Charge: 0.000000 

Density mixing:
  Method: separate
  Backend: pulay
  Linear mixing parameter: 0.05
  Mixing with 5 old densities
  Damping of long wave oscillations: 50 

Hamiltonian:
  XC and Coulomb potentials evaluated on a 128*128*128 grid
  Using the vdW-DF-cx Exchange-Correlation functional
 

XC parameters: vdW-DF-cx with libvdwxc
  Mode: serial
  Semilocal: GGA_X_LV_RPW86+LDA_C_PW with 2 nearest neighbor stencil
  Local blocksize: 128 x 128 x 128
  PAW datasets: PBE

Memory estimate:
  Process memory now: 1018.69 MiB
  Calculator: 181.86 MiB
    Density: 123.30 MiB
      Arrays: 52.00 MiB
      Localized functions: 51.30 MiB
      Mixer: 20.00 MiB
    Hamiltonian: 35.05 MiB
      Arrays: 34.00 MiB
      XC: 0.00 MiB
      Poisson: 0.00 MiB
      vbar: 1.05 MiB
    Wavefunctions: 23.51 MiB
      Arrays psit_nG: 6.99 MiB
      Eigensolver: 9.33 MiB
      Projections: 0.00 MiB
      Projectors: 1.63 MiB
      PW-descriptor: 5.56 MiB

Total number of cores used: 1

Number of atoms: 6
Number of atomic orbitals: 24
Number of bands in calculation: 15
Bands to converge: occupied states only
Number of valence electrons: 6

... initialized

Initializing position-dependent things.

Density initialized from atomic densities
Creating initial wave functions:
  15 bands from LCAO basis set

           .--------------------------------------.  
          /|                                      |  
         / |                                      |  
        /  |                                      |  
       /   |                                      |  
      /    |                                      |  
     /     |                                      |  
    /      |                                      |  
   /       |                                      |  
  /        |                                      |  
 *         |           Na                         |  
 |         |                                      |  
 |         |                Na                    |  
 |         |                                      |  
 |         |            Na                        |  
 |         |                    Na                |  
 |         |                                      |  
 |         |                Na                    |  
 |         |                                      |  
 |         |             Na                       |  
 |         .--------------------------------------.  
 |        /                                      /   
 |       /                                      /    
 |      /                                      /     
 |     /                                      /      
 |    /                                      /       
 |   /                                      /        
 |  /                                      /         
 | /                                      /          
 |/                                      /           
 *--------------------------------------*            

Positions:
   0 Na    11.424955    5.046215    9.661160    ( 0.0000,  0.0000,  0.0000)
   1 Na     9.091214    7.135542   10.719357    ( 0.0000,  0.0000,  0.0000)
   2 Na     6.710298    9.263471   11.516303    ( 0.0000,  0.0000,  0.0000)
   3 Na     7.680133    8.011559    5.125248    ( 0.0000,  0.0000,  0.0000)
   4 Na     9.624253    6.463545    7.292195    ( 0.0000,  0.0000,  0.0000)
   5 Na     7.055205    8.690646    8.283979    ( 0.0000,  0.0000,  0.0000)

Unit cell:
           periodic     x           y           z      points  spacing
  1. axis:    no    16.000000    0.000000    0.000000    64     0.2500
  2. axis:    no     0.000000   16.000000    0.000000    64     0.2500
  3. axis:    no     0.000000    0.000000   16.000000    64     0.2500

  Lengths:  16.000000  16.000000  16.000000
  Angles:   90.000000  90.000000  90.000000

Effective grid spacing dv^(1/3) = 0.2500

                     log10-error:    total        iterations:
           time      wfs    density  energy       fermi  poisson
iter:   1  17:56:26  +0.45   +inf    17.504190    2             
iter:   2  17:56:31  -1.39  -0.53    17.500342    2             
iter:   3  17:56:36  -1.96  -0.54    17.523110    4             
iter:   4  17:56:41  -2.54  -0.78    17.511571    2             
iter:   5  17:56:47  -2.32  -0.85    17.496581    4             
iter:   6  17:56:52  -3.32  -1.62    17.497740    3             
iter:   7  17:56:57  -3.76  -1.82    17.496921    2             
iter:   8  17:57:02  -3.76  -1.73    17.497472    2             
iter:   9  17:57:07  -4.46  -2.28    17.497430    2             
iter:  10  17:57:13  -5.21  -2.34    17.497385    1             
iter:  11  17:57:18  -5.39  -2.41    17.497351    1             
iter:  12  17:57:23  -6.23  -2.67    17.497345    1             
iter:  13  17:57:28  -6.12  -2.72    17.497346    1             
iter:  14  17:57:33  -6.92  -2.99    17.497345    1             
iter:  15  17:57:39  -6.49  -3.07    17.497344    1             
iter:  16  17:57:44  -7.96  -3.36    17.497344    1             
iter:  17  17:57:49  -7.29  -3.37    17.497345    1             
iter:  18  17:57:54  -7.29  -3.54    17.497345    1             
iter:  19  17:58:00  -7.98  -3.65    17.497345    1             
iter:  20  17:58:05  -8.64  -3.76    17.497345    1             
iter:  21  17:58:10  -8.55  -3.82    17.497345    1             
iter:  22  17:58:15  -9.08  -3.97    17.497345    1             
iter:  23  17:58:20  -8.34  -4.01    17.497345    1             

Converged after 23 iterations.

Dipole moment: (0.023387, -0.011744, -0.009788) |e|*Ang

Energy contributions relative to reference atoms: (reference = -26511.662975)

Kinetic:         +7.826365
Potential:       -7.411835
External:        +0.000000
XC:             +17.079992
Entropy (-ST):   -0.000031
Local:           +0.002839
--------------------------
Free energy:    +17.497330
Extrapolated:   +17.497345

Non-local vdW-DF-cx correlation energy: 2.003525
Semilocal GGA_X_LV_RPW86+LDA_C_PW energy: -52.764821
(Not including atomic contributions)
Fermi level: -2.17310

 Band  Eigenvalues  Occupancy
    0     -3.75551    2.00000
    1     -2.77517    1.99999
    2     -2.77236    1.99999
    3     -1.60343    0.00002
    4     -1.45356    0.00000
    5     -1.41616    0.00000
    6     -1.31300    0.00000
    7     -0.68821    0.00000
    8     -0.63517    0.00000
    9     -0.57610    0.00000
   10     -0.53018    0.00000
   11     -0.47682    0.00000
   12     -0.40890    0.00000
   13     -0.21038    0.00000
   14     -0.02364    0.00000

Gap: 1.169 eV
Transition (v -> c):
  (s=0, k=0, n=2, [0.00, 0.00, 0.00]) -> (s=0, k=0, n=3, [0.00, 0.00, 0.00])
System changes: positions 

Initializing position-dependent things.

Density initialized from wave functions
           .--------------------------------------.  
          /|                                      |  
         / |                                      |  
        /  |                                      |  
       /   |                                      |  
      /    |                                      |  
     /     |                                      |  
    /      |                                      |  
   /       |                                      |  
  /        |                                      |  
 *         |                                      |  
 |         |          Na                          |  
 |         |                                      |  
 |         |       Na      Na                     |  
 |         |                Na                    |  
 |         |                                      |  
 |         |                                      |  
 |         |             Na   Na                  |  
 |         |                                      |  
 |         |                                      |  
 |         .--------------------------------------.  
 |        /                                      /   
 |       /                                      /    
 |      /                                      /     
 |     /                                      /      
 |    /                                      /       
 |   /                                      /        
 |  /                                      /         
 | /                                      /          
 |/                                      /           
 *--------------------------------------*            

Positions:
   0 Na     8.210231    9.489933    8.656516    ( 0.0000,  0.0000,  0.0000)
   1 Na     6.417931    8.101846   10.968460    ( 0.0000,  0.0000,  0.0000)
   2 Na     5.009862    9.947279    8.321395    ( 0.0000,  0.0000,  0.0000)
   3 Na     7.211492    9.790525    5.577356    ( 0.0000,  0.0000,  0.0000)
   4 Na     9.992557    7.848605    6.505352    ( 0.0000,  0.0000,  0.0000)
   5 Na     9.477264    6.754058    9.822530    ( 0.0000,  0.0000,  0.0000)

Unit cell:
           periodic     x           y           z      points  spacing
  1. axis:    no    16.000000    0.000000    0.000000    64     0.2500
  2. axis:    no     0.000000   16.000000    0.000000    64     0.2500
  3. axis:    no     0.000000    0.000000   16.000000    64     0.2500

  Lengths:  16.000000  16.000000  16.000000
  Angles:   90.000000  90.000000  90.000000

Effective grid spacing dv^(1/3) = 0.2500

                     log10-error:    total        iterations:
           time      wfs    density  energy       fermi  poisson
iter:   1  17:58:26  +0.35   +inf    15.441988    26            
iter:   2  17:58:32  -0.68  -0.09    15.838964    4             
iter:   3  17:58:37  -1.16  -0.12    17.407848    28            
iter:   4  17:58:42  -1.88  -0.45    17.426268    4             
iter:   5  17:58:46  -2.07  -0.51    17.529104    4             
iter:   6  17:58:51  -2.43  -0.81    17.492131    4             
iter:   7  17:58:56  -2.81  -0.93    17.493447    3             
iter:   8  17:59:01  -3.09  -1.17    17.481672    2             
iter:   9  17:59:06  -3.38  -1.33    17.473958    3             
iter:  10  17:59:11  -3.81  -1.52    17.473875    2             
iter:  11  17:59:15  -4.45  -1.80    17.473637    2             
iter:  12  17:59:20  -4.89  -1.87    17.473320    2             
iter:  13  17:59:25  -5.12  -2.00    17.473294    2             
iter:  14  17:59:30  -5.48  -2.11    17.473227    2             
iter:  15  17:59:35  -4.83  -2.18    17.472939    2             
iter:  16  17:59:40  -5.85  -2.48    17.472934    2             
iter:  17  17:59:45  -5.97  -2.57    17.472946    2             
iter:  18  17:59:49  -6.75  -2.90    17.472947    1             
iter:  19  17:59:54  -6.61  -2.94    17.472946    1             
iter:  20  17:59:59  -7.01  -3.19    17.472945    1             
iter:  21  18:00:04  -8.09  -3.27    17.472944    1             
iter:  22  18:00:09  -6.72  -3.30    17.472946    1             
iter:  23  18:00:14  -8.19  -3.81    17.472946    1             
iter:  24  18:00:18  -8.72  -3.90    17.472946    1             
iter:  25  18:00:23  -8.44  -3.99    17.472946    1             
iter:  26  18:00:28  -8.96  -4.21    17.472946    1             

Converged after 26 iterations.

Dipole moment: (-0.079055, -0.121540, -0.052956) |e|*Ang

Energy contributions relative to reference atoms: (reference = -26511.662975)

Kinetic:         +8.028904
Potential:       -7.410955
External:        +0.000000
XC:             +16.853937
Entropy (-ST):   -0.000063
Local:           +0.001091
--------------------------
Free energy:    +17.472914
Extrapolated:   +17.472946

Non-local vdW-DF-cx correlation energy: 1.957712
Semilocal GGA_X_LV_RPW86+LDA_C_PW energy: -52.876583
(Not including atomic contributions)
Fermi level: -2.14928

 Band  Eigenvalues  Occupancy
    0     -3.86429    2.00000
    1     -2.71558    1.99998
    2     -2.70776    1.99997
    3     -1.61867    0.00005
    4     -1.45444    0.00000
    5     -1.43274    0.00000
    6     -1.26387    0.00000
    7     -0.72332    0.00000
    8     -0.69160    0.00000
    9     -0.44486    0.00000
   10     -0.39981    0.00000
   11     -0.37159    0.00000
   12     -0.28236    0.00000
   13     -0.25138    0.00000
   14     -0.07591    0.00000

Gap: 1.089 eV
Transition (v -> c):
  (s=0, k=0, n=2, [0.00, 0.00, 0.00]) -> (s=0, k=0, n=3, [0.00, 0.00, 0.00])
System changes: positions 

Initializing position-dependent things.

Density initialized from wave functions
           .--------------------------------------.  
          /|                                      |  
         / |                                      |  
        /  |                                      |  
       /   |                                      |  
      /    |                                      |  
     /     |                                      |  
    /      |                                      |  
   /       |                                      |  
  /        |                                      |  
 *         |           Na                         |  
 |         |                                      |  
 |         |                Na                    |  
 |         |                                      |  
 |         |            Na                        |  
 |         |                    Na                |  
 |         |                                      |  
 |         |                Na                    |  
 |         |                                      |  
 |         |             Na                       |  
 |         .--------------------------------------.  
 |        /                                      /   
 |       /                                      /    
 |      /                                      /     
 |     /                                      /      
 |    /                                      /       
 |   /                                      /        
 |  /                                      /         
 | /                                      /          
 |/                                      /           
 *--------------------------------------*            

Positions:
   0 Na    11.424955    5.046215    9.661160    ( 0.0000,  0.0000,  0.0000)
   1 Na     9.091214    7.135542   10.719357    ( 0.0000,  0.0000,  0.0000)
   2 Na     6.710298    9.263471   11.516303    ( 0.0000,  0.0000,  0.0000)
   3 Na     7.680133    8.011559    5.125248    ( 0.0000,  0.0000,  0.0000)
   4 Na     9.624253    6.463545    7.292195    ( 0.0000,  0.0000,  0.0000)
   5 Na     7.055205    8.690646    8.283979    ( 0.0000,  0.0000,  0.0000)

Unit cell:
           periodic     x           y           z      points  spacing
  1. axis:    no    16.000000    0.000000    0.000000    64     0.2500
  2. axis:    no     0.000000   16.000000    0.000000    64     0.2500
  3. axis:    no     0.000000    0.000000   16.000000    64     0.2500

  Lengths:  16.000000  16.000000  16.000000
  Angles:   90.000000  90.000000  90.000000

Effective grid spacing dv^(1/3) = 0.2500

                     log10-error:    total        iterations:
           time      wfs    density  energy       fermi  poisson
iter:   1  18:00:34  +0.52   +inf    11.812713    26            
iter:   2  18:00:39  -0.43  +0.05    12.785916    5             
iter:   3  18:00:43  -1.05  +0.02    15.304273    9             
iter:   4  18:00:48  -1.25  -0.10    17.415266    28            
iter:   5  18:00:53  -2.21  -0.47    17.468763    3             
iter:   6  18:00:58  -1.85  -0.52    17.511172    9             
iter:   7  18:01:03  -2.82  -0.78    17.486445    3             
iter:   8  18:01:08  -2.45  -0.81    17.514938    5             
iter:   9  18:01:13  -3.30  -1.16    17.504965    3             
iter:  10  18:01:18  -3.24  -1.30    17.498358    2             
iter:  11  18:01:23  -3.77  -1.52    17.498521    3             
iter:  12  18:01:28  -4.90  -1.81    17.498436    2             
iter:  13  18:01:32  -5.04  -1.84    17.498217    1             
iter:  14  18:01:37  -5.10  -1.94    17.498025    2             
iter:  15  18:01:42  -6.08  -2.00    17.498038    1             
iter:  16  18:01:47  -5.90  -2.03    17.498047    1             
iter:  17  18:01:52  -5.61  -2.08    17.497920    2             
iter:  18  18:01:57  -6.30  -2.14    17.497857    1             
iter:  19  18:02:02  -4.91  -2.16    17.497521    2             
iter:  20  18:02:07  -5.77  -2.36    17.497456    1             
iter:  21  18:02:12  -5.02  -2.40    17.497342    1             
iter:  22  18:02:17  -6.37  -2.93    17.497343    1             
iter:  23  18:02:22  -7.06  -3.02    17.497342    1             
iter:  24  18:02:27  -7.01  -3.10    17.497344    1             
iter:  25  18:02:32  -7.67  -3.38    17.497344    1             
iter:  26  18:02:37  -7.33  -3.43    17.497345    1             
iter:  27  18:02:42  -7.67  -3.56    17.497345    1             
iter:  28  18:02:46  -8.68  -3.63    17.497345    1             
iter:  29  18:02:51  -8.67  -3.66    17.497345    1             
iter:  30  18:02:56  -8.08  -3.75    17.497345    1             
iter:  31  18:03:01  -9.17  -3.89    17.497345    1             
iter:  32  18:03:06  -8.80  -3.94    17.497345    1             
iter:  33  18:03:11  -9.58  -4.02    17.497345    1             

Converged after 33 iterations.

Dipole moment: (0.023373, -0.011706, -0.009774) |e|*Ang

Energy contributions relative to reference atoms: (reference = -26511.662975)

Kinetic:         +7.823646
Potential:       -7.409772
External:        +0.000000
XC:             +17.079734
Entropy (-ST):   -0.000031
Local:           +0.003753
--------------------------
Free energy:    +17.497329
Extrapolated:   +17.497345

Non-local vdW-DF-cx correlation energy: 2.003536
Semilocal GGA_X_LV_RPW86+LDA_C_PW energy: -52.765347
(Not including atomic contributions)
Fermi level: -2.17302

 Band  Eigenvalues  Occupancy
    0     -3.75542    2.00000
    1     -2.77510    1.99999
    2     -2.77226    1.99999
    3     -1.60336    0.00002
    4     -1.45351    0.00000
    5     -1.41609    0.00000
    6     -1.31299    0.00000
    7     -0.68822    0.00000
    8     -0.63514    0.00000
    9     -0.57608    0.00000
   10     -0.53013    0.00000
   11     -0.47684    0.00000
   12     -0.40889    0.00000
   13     -0.21033    0.00000
   14     -0.03063    0.00000

Gap: 1.169 eV
Transition (v -> c):
  (s=0, k=0, n=2, [0.00, 0.00, 0.00]) -> (s=0, k=0, n=3, [0.00, 0.00, 0.00])

Forces in eV/Ang:
  0 Na    0.15787   -0.13354    0.05392
  1 Na    0.03243   -0.02156    0.09822
  2 Na   -0.11072    0.10807    0.15566
  3 Na   -0.05163    0.03245   -0.20965
  4 Na    0.05104   -0.04840   -0.07702
  5 Na   -0.07882    0.06304   -0.02120

System changes: positions 

Initializing position-dependent things.

Density initialized from wave functions
           .--------------------------------------.  
          /|                                      |  
         / |                                      |  
        /  |                                      |  
       /   |                                      |  
      /    |                                      |  
     /     |                                      |  
    /      |                                      |  
   /       |                                      |  
  /        |                                      |  
 *         |           Na                         |  
 |         |                                      |  
 |         |                Na                    |  
 |         |                                      |  
 |         |           Na                         |  
 |         |                    Na                |  
 |         |                                      |  
 |         |                 Na                   |  
 |         |                                      |  
 |         |             Na                       |  
 |         .--------------------------------------.  
 |        /                                      /   
 |       /                                      /    
 |      /                                      /     
 |     /                                      /      
 |    /                                      /       
 |   /                                      /        
 |  /                                      /         
 | /                                      /          
 |/                                      /           
 *--------------------------------------*            

Positions:
   0 Na    11.576263    4.918227    9.712841    ( 0.0000,  0.0000,  0.0000)
   1 Na     9.122292    7.114878   10.813497    ( 0.0000,  0.0000,  0.0000)
   2 Na     6.604180    9.367048   11.665488    ( 0.0000,  0.0000,  0.0000)
   3 Na     7.630647    8.042661    4.924314    ( 0.0000,  0.0000,  0.0000)
   4 Na     9.673168    6.417154    7.218379    ( 0.0000,  0.0000,  0.0000)
   5 Na     6.979663    8.751061    8.263662    ( 0.0000,  0.0000,  0.0000)

Unit cell:
           periodic     x           y           z      points  spacing
  1. axis:    no    16.000000    0.000000    0.000000    64     0.2500
  2. axis:    no     0.000000   16.000000    0.000000    64     0.2500
  3. axis:    no     0.000000    0.000000   16.000000    64     0.2500

  Lengths:  16.000000  16.000000  16.000000
  Angles:   90.000000  90.000000  90.000000

Effective grid spacing dv^(1/3) = 0.2500

                     log10-error:    total        iterations:
           time      wfs    density  energy       fermi  poisson
iter:   1  18:03:18  -0.83   +inf    17.237131    4             
iter:   2  18:03:22  -2.09  -0.67    17.279185    3             
iter:   3  18:03:27  -2.28  -0.72    17.409387    5             
iter:   4  18:03:32  -3.52  -1.40    17.410714    3             
iter:   5  18:03:37  -3.76  -1.49    17.410485    3             
iter:   6  18:03:42  -3.62  -1.67    17.410291    2             
iter:   7  18:03:47  -4.58  -2.11    17.410136    2             
iter:   8  18:03:52  -4.90  -2.25    17.409962    2             
iter:   9  18:03:57  -5.37  -2.44    17.409906    2             
iter:  10  18:04:02  -5.61  -2.72    17.409879    2             
iter:  11  18:04:07  -6.70  -3.01    17.409879    1             
iter:  12  18:04:12  -6.37  -3.03    17.409877    1             
iter:  13  18:04:17  -7.43  -3.39    17.409877    1             
iter:  14  18:04:21  -7.52  -3.43    17.409877    1             
iter:  15  18:04:26  -7.72  -3.60    17.409877    1             
iter:  16  18:04:31  -8.32  -3.83    17.409878    1             
iter:  17  18:04:37  -8.81  -3.95    17.409878    1             
iter:  18  18:04:42  -9.49  -4.16    17.409878    1             

Converged after 18 iterations.

Dipole moment: (0.031960, -0.017803, -0.011478) |e|*Ang

Energy contributions relative to reference atoms: (reference = -26511.662975)

Kinetic:         +2.953931
Potential:       -3.538336
External:        +0.000000
XC:             +17.991658
Entropy (-ST):   -0.000057
Local:           +0.002652
--------------------------
Free energy:    +17.409849
Extrapolated:   +17.409878

Non-local vdW-DF-cx correlation energy: 2.007912
Semilocal GGA_X_LV_RPW86+LDA_C_PW energy: -52.127114
(Not including atomic contributions)
Fermi level: -2.17392

 Band  Eigenvalues  Occupancy
    0     -3.63041    2.00000
    1     -2.74485    1.99998
    2     -2.73889    1.99998
    3     -1.63697    0.00004
    4     -1.49020    0.00000
    5     -1.45146    0.00000
    6     -1.24152    0.00000
    7     -0.69268    0.00000
    8     -0.68397    0.00000
    9     -0.57513    0.00000
   10     -0.56605    0.00000
   11     -0.48751    0.00000
   12     -0.45909    0.00000
   13     -0.26225    0.00000
   14     -0.04080    0.00000

Gap: 1.102 eV
Transition (v -> c):
  (s=0, k=0, n=2, [0.00, 0.00, 0.00]) -> (s=0, k=0, n=3, [0.00, 0.00, 0.00])

Forces in eV/Ang:
  0 Na    0.02251   -0.01934    0.00667
  1 Na   -0.00435    0.00394    0.00113
  2 Na   -0.01281    0.01190    0.01804
  3 Na   -0.00738    0.00338   -0.02404
  4 Na   -0.00181    0.00075   -0.00128
  5 Na    0.00377   -0.00072   -0.00046

System changes: positions 

Initializing position-dependent things.

Density initialized from wave functions
           .--------------------------------------.  
          /|                                      |  
         / |                                      |  
        /  |                                      |  
       /   |                                      |  
      /    |                                      |  
     /     |                                      |  
    /      |                                      |  
   /       |                                      |  
  /        |           Na                         |  
 *         |                                      |  
 |         |                                      |  
 |         |                Na                    |  
 |         |                                      |  
 |         |           Na                         |  
 |         |                    Na                |  
 |         |                                      |  
 |         |                 Na                   |  
 |         |                                      |  
 |         |             Na                       |  
 |         .--------------------------------------.  
 |        /                                      /   
 |       /                                      /    
 |      /                                      /     
 |     /                                      /      
 |    /                                      /       
 |   /                                      /        
 |  /                                      /         
 | /                                      /          
 |/                                      /           
 *--------------------------------------*            

Positions:
   0 Na    11.636800    4.866446    9.731540    ( 0.0000,  0.0000,  0.0000)
   1 Na     9.117338    7.120197   10.826211    ( 0.0000,  0.0000,  0.0000)
   2 Na     6.567484    9.401680   11.717132    ( 0.0000,  0.0000,  0.0000)
   3 Na     7.610811    8.052697    4.855261    ( 0.0000,  0.0000,  0.0000)
   4 Na     9.675129    6.413419    7.207644    ( 0.0000,  0.0000,  0.0000)
   5 Na     6.978522    8.756411    8.260494    ( 0.0000,  0.0000,  0.0000)

Unit cell:
           periodic     x           y           z      points  spacing
  1. axis:    no    16.000000    0.000000    0.000000    64     0.2500
  2. axis:    no     0.000000   16.000000    0.000000    64     0.2500
  3. axis:    no     0.000000    0.000000   16.000000    64     0.2500

  Lengths:  16.000000  16.000000  16.000000
  Angles:   90.000000  90.000000  90.000000

Effective grid spacing dv^(1/3) = 0.2500

                     log10-error:    total        iterations:
           time      wfs    density  energy       fermi  poisson
iter:   1  18:04:49  -1.96   +inf    17.398927    3             
iter:   2  18:04:54  -3.18  -1.25    17.401826    2             
iter:   3  18:04:59  -3.47  -1.31    17.410356    3             
iter:   4  18:05:04  -4.52  -1.95    17.410375    2             
iter:   5  18:05:09  -4.69  -2.01    17.410382    2             
iter:   6  18:05:15  -4.80  -2.29    17.410372    2             
iter:   7  18:05:20  -5.67  -2.52    17.410364    2             
iter:   8  18:05:25  -6.53  -2.79    17.410355    1             
iter:   9  18:05:30  -5.66  -2.82    17.410341    1             
iter:  10  18:05:35  -7.06  -3.49    17.410342    1             
iter:  11  18:05:40  -7.83  -3.52    17.410341    1             
iter:  12  18:05:46  -7.50  -3.56    17.410341    1             
iter:  13  18:05:51  -8.38  -3.85    17.410341    1             
iter:  14  18:05:56  -9.03  -3.88    17.410341    1             
iter:  15  18:06:01  -8.45  -3.92    17.410341    1             
iter:  16  18:06:06  -9.05  -4.29    17.410341    1             

Converged after 16 iterations.

Dipole moment: (0.030266, -0.015911, -0.012995) |e|*Ang

Energy contributions relative to reference atoms: (reference = -26511.662975)

Kinetic:         +1.683581
Potential:       -2.512642
External:        +0.000000
XC:             +18.236801
Entropy (-ST):   -0.000078
Local:           +0.002640
--------------------------
Free energy:    +17.410302
Extrapolated:   +17.410341

Non-local vdW-DF-cx correlation energy: 2.008407
Semilocal GGA_X_LV_RPW86+LDA_C_PW energy: -51.949987
(Not including atomic contributions)
Fermi level: -2.17869

 Band  Eigenvalues  Occupancy
    0     -3.60128    2.00000
    1     -2.73018    1.99997
    2     -2.72770    1.99997
    3     -1.66057    0.00006
    4     -1.49564    0.00000
    5     -1.45156    0.00000
    6     -1.22470    0.00000
    7     -0.70171    0.00000
    8     -0.69150    0.00000
    9     -0.58962    0.00000
   10     -0.56415    0.00000
   11     -0.49349    0.00000
   12     -0.47002    0.00000
   13     -0.27730    0.00000
   14     -0.04514    0.00000

Gap: 1.067 eV
Transition (v -> c):
  (s=0, k=0, n=2, [0.00, 0.00, 0.00]) -> (s=0, k=0, n=3, [0.00, 0.00, 0.00])

Forces in eV/Ang:
  0 Na   -0.02625    0.02216   -0.00751
  1 Na    0.00447   -0.00440   -0.01101
  2 Na    0.01006   -0.01081   -0.01949
  3 Na    0.00435   -0.00418    0.02530
  4 Na   -0.00067    0.00048    0.01152
  5 Na    0.00805   -0.00332    0.00115

System changes: positions 

Initializing position-dependent things.

Density initialized from wave functions
           .--------------------------------------.  
          /|                                      |  
         / |                                      |  
        /  |                                      |  
       /   |                                      |  
      /    |                                      |  
     /     |                                      |  
    /      |                                      |  
   /       |                                      |  
  /        |                                      |  
 *         |           Na                         |  
 |         |                                      |  
 |         |                Na                    |  
 |         |                                      |  
 |         |            Na                        |  
 |         |                    Na                |  
 |         |                                      |  
 |         |                 Na                   |  
 |         |                                      |  
 |         |             Na                       |  
 |         .--------------------------------------.  
 |        /                                      /   
 |       /                                      /    
 |      /                                      /     
 |     /                                      /      
 |    /                                      /       
 |   /                                      /        
 |  /                                      /         
 | /                                      /          
 |/                                      /           
 *--------------------------------------*            

Positions:
   0 Na    11.604336    4.893819    9.721540    ( 0.0000,  0.0000,  0.0000)
   1 Na     9.117748    7.118860   10.808598    ( 0.0000,  0.0000,  0.0000)
   2 Na     6.583548    9.385054   11.689966    ( 0.0000,  0.0000,  0.0000)
   3 Na     7.617790    8.046875    4.891069    ( 0.0000,  0.0000,  0.0000)
   4 Na     9.669938    6.418055    7.223871    ( 0.0000,  0.0000,  0.0000)
   5 Na     6.992700    8.748097    8.263207    ( 0.0000,  0.0000,  0.0000)

Unit cell:
           periodic     x           y           z      points  spacing
  1. axis:    no    16.000000    0.000000    0.000000    64     0.2500
  2. axis:    no     0.000000   16.000000    0.000000    64     0.2500
  3. axis:    no     0.000000    0.000000   16.000000    64     0.2500

  Lengths:  16.000000  16.000000  16.000000
  Angles:   90.000000  90.000000  90.000000

Effective grid spacing dv^(1/3) = 0.2500

                     log10-error:    total        iterations:
           time      wfs    density  energy       fermi  poisson
iter:   1  18:06:13  -2.39   +inf    17.403862    2             
iter:   2  18:06:18  -3.66  -1.45    17.405054    2             
iter:   3  18:06:23  -3.85  -1.52    17.408466    2             
iter:   4  18:06:28  -4.86  -2.16    17.408472    2             
iter:   5  18:06:33  -5.21  -2.21    17.408470    2             
iter:   6  18:06:38  -5.26  -2.50    17.408463    2             
iter:   7  18:06:44  -6.14  -2.72    17.408460    1             
iter:   8  18:06:49  -6.81  -2.95    17.408457    1             
iter:   9  18:06:54  -6.20  -3.04    17.408453    1             
iter:  10  18:06:59  -7.26  -3.64    17.408453    1             
iter:  11  18:07:04  -8.25  -3.69    17.408453    1             
iter:  12  18:07:09  -8.14  -3.72    17.408453    1             
iter:  13  18:07:14  -8.21  -3.86    17.408453    1             
iter:  14  18:07:19  -8.64  -4.12    17.408453    1             

Converged after 14 iterations.

Dipole moment: (0.032790, -0.018693, -0.011947) |e|*Ang

Energy contributions relative to reference atoms: (reference = -26511.662975)

Kinetic:         +2.447768
Potential:       -3.126491
External:        +0.000000
XC:             +18.084017
Entropy (-ST):   -0.000069
Local:           +0.003193
--------------------------
Free energy:    +17.408418
Extrapolated:   +17.408453

Non-local vdW-DF-cx correlation energy: 2.007794
Semilocal GGA_X_LV_RPW86+LDA_C_PW energy: -52.060163
(Not including atomic contributions)
Fermi level: -2.17728

 Band  Eigenvalues  Occupancy
    0     -3.62117    2.00000
    1     -2.73718    1.99997
    2     -2.73196    1.99997
    3     -1.65211    0.00005
    4     -1.48728    0.00000
    5     -1.44693    0.00000
    6     -1.23545    0.00000
    7     -0.69371    0.00000
    8     -0.69141    0.00000
    9     -0.58231    0.00000
   10     -0.56377    0.00000
   11     -0.49041    0.00000
   12     -0.46122    0.00000
   13     -0.26720    0.00000
   14     -0.04276    0.00000

Gap: 1.080 eV
Transition (v -> c):
  (s=0, k=0, n=2, [0.00, 0.00, 0.00]) -> (s=0, k=0, n=3, [0.00, 0.00, 0.00])

Forces in eV/Ang:
  0 Na    0.00014   -0.00026    0.00087
  1 Na    0.00049    0.00018    0.00588
  2 Na    0.00011   -0.00068   -0.00170
  3 Na    0.00017   -0.00170    0.00076
  4 Na    0.00136   -0.00216   -0.00561
  5 Na   -0.00225    0.00457   -0.00016

System changes: positions 

Initializing position-dependent things.

Density initialized from wave functions
           .--------------------------------------.  
          /|                                      |  
         / |                                      |  
        /  |                                      |  
       /   |                                      |  
      /    |                                      |  
     /     |                                      |  
    /      |                                      |  
   /       |                                      |  
  /        |                                      |  
 *         |                                      |  
 |         |          Na                          |  
 |         |                                      |  
 |         |       Na      Na                     |  
 |         |                Na                    |  
 |         |                                      |  
 |         |                                      |  
 |         |             Na   Na                  |  
 |         |                                      |  
 |         |                                      |  
 |         .--------------------------------------.  
 |        /                                      /   
 |       /                                      /    
 |      /                                      /     
 |     /                                      /      
 |    /                                      /       
 |   /                                      /        
 |  /                                      /         
 | /                                      /          
 |/                                      /           
 *--------------------------------------*            

Positions:
   0 Na     8.210231    9.489933    8.656516    ( 0.0000,  0.0000,  0.0000)
   1 Na     6.417931    8.101846   10.968460    ( 0.0000,  0.0000,  0.0000)
   2 Na     5.009862    9.947279    8.321395    ( 0.0000,  0.0000,  0.0000)
   3 Na     7.211492    9.790525    5.577356    ( 0.0000,  0.0000,  0.0000)
   4 Na     9.992557    7.848605    6.505352    ( 0.0000,  0.0000,  0.0000)
   5 Na     9.477264    6.754058    9.822530    ( 0.0000,  0.0000,  0.0000)

Unit cell:
           periodic     x           y           z      points  spacing
  1. axis:    no    16.000000    0.000000    0.000000    64     0.2500
  2. axis:    no     0.000000   16.000000    0.000000    64     0.2500
  3. axis:    no     0.000000    0.000000   16.000000    64     0.2500

  Lengths:  16.000000  16.000000  16.000000
  Angles:   90.000000  90.000000  90.000000

Effective grid spacing dv^(1/3) = 0.2500

                     log10-error:    total        iterations:
           time      wfs    density  energy       fermi  poisson
iter:   1  18:07:26  +0.30   +inf    15.870791    26            
iter:   2  18:07:31  -0.77  -0.13    16.179816    4             
iter:   3  18:07:36  -1.28  -0.17    17.420535    9             
iter:   4  18:07:41  -1.91  -0.47    17.471605    4             
iter:   5  18:07:47  -2.16  -0.55    17.522679    4             
iter:   6  18:07:52  -2.41  -0.82    17.493487    4             
iter:   7  18:07:57  -2.84  -0.98    17.488759    3             
iter:   8  18:08:02  -3.23  -1.22    17.480624    2             
iter:   9  18:08:07  -3.32  -1.37    17.472404    3             
iter:  10  18:08:12  -3.81  -1.54    17.473546    3             
iter:  11  18:08:17  -4.61  -1.89    17.473425    2             
iter:  12  18:08:22  -4.82  -1.95    17.473172    2             
iter:  13  18:08:28  -5.55  -2.15    17.473138    2             
iter:  14  18:08:33  -5.53  -2.20    17.473149    2             
iter:  15  18:08:38  -6.12  -2.30    17.473150    1             
iter:  16  18:08:43  -6.47  -2.33    17.473132    2             
iter:  17  18:08:48  -6.36  -2.38    17.473110    1             
iter:  18  18:08:53  -6.90  -2.43    17.473092    1             
iter:  19  18:08:58  -5.05  -2.45    17.472946    2             
iter:  20  18:09:03  -6.44  -3.16    17.472946    1             
iter:  21  18:09:09  -7.09  -3.26    17.472946    1             
iter:  22  18:09:13  -7.99  -3.43    17.472946    1             
iter:  23  18:09:18  -8.36  -3.47    17.472946    1             
iter:  24  18:09:23  -7.84  -3.53    17.472945    1             
iter:  25  18:09:28  -7.84  -3.64    17.472945    1             
iter:  26  18:09:33  -8.92  -3.74    17.472945    1             
iter:  27  18:09:38  -8.07  -3.77    17.472946    1             
iter:  28  18:09:42  -9.20  -4.13    17.472946    1             

Converged after 28 iterations.

Dipole moment: (-0.078912, -0.121438, -0.052829) |e|*Ang

Energy contributions relative to reference atoms: (reference = -26511.662975)

Kinetic:         +8.028142
Potential:       -7.410242
External:        +0.000000
XC:             +16.853913
Entropy (-ST):   -0.000063
Local:           +0.001164
--------------------------
Free energy:    +17.472914
Extrapolated:   +17.472946

Non-local vdW-DF-cx correlation energy: 1.957710
Semilocal GGA_X_LV_RPW86+LDA_C_PW energy: -52.876632
(Not including atomic contributions)
Fermi level: -2.14926

 Band  Eigenvalues  Occupancy
    0     -3.86424    2.00000
    1     -2.71555    1.99998
    2     -2.70773    1.99997
    3     -1.61865    0.00005
    4     -1.45442    0.00000
    5     -1.43271    0.00000
    6     -1.26384    0.00000
    7     -0.72332    0.00000
    8     -0.69158    0.00000
    9     -0.44485    0.00000
   10     -0.39979    0.00000
   11     -0.37157    0.00000
   12     -0.28235    0.00000
   13     -0.25136    0.00000
   14     -0.07590    0.00000

Gap: 1.089 eV
Transition (v -> c):
  (s=0, k=0, n=2, [0.00, 0.00, 0.00]) -> (s=0, k=0, n=3, [0.00, 0.00, 0.00])

Forces in eV/Ang:
  0 Na    0.10524    0.20240    0.07158
  1 Na   -0.09971   -0.06923    0.16290
  2 Na   -0.18906    0.05796   -0.01148
  3 Na   -0.05070    0.04917   -0.18494
  4 Na    0.13488   -0.08560   -0.12767
  5 Na    0.09868   -0.15532    0.08925

System changes: positions 

Initializing position-dependent things.

Density initialized from wave functions
           .--------------------------------------.  
          /|                                      |  
         / |                                      |  
        /  |                                      |  
       /   |                                      |  
      /    |                                      |  
     /     |                                      |  
    /      |                                      |  
   /       |                                      |  
  /        |                                      |  
 *         |                                      |  
 |         |         Na                           |  
 |         |                                      |  
 |         |       Na      NNa                    |  
 |         |                                      |  
 |         |                                      |  
 |         |                                      |  
 |         |             Na   Na                  |  
 |         |                                      |  
 |         |                                      |  
 |         .--------------------------------------.  
 |        /                                      /   
 |       /                                      /    
 |      /                                      /     
 |     /                                      /      
 |    /                                      /       
 |   /                                      /        
 |  /                                      /         
 | /                                      /          
 |/                                      /           
 *--------------------------------------*            

Positions:
   0 Na     8.292709    9.648551    8.712615    ( 0.0000,  0.0000,  0.0000)
   1 Na     6.339792    8.047590   11.096123    ( 0.0000,  0.0000,  0.0000)
   2 Na     4.861697    9.992700    8.312397    ( 0.0000,  0.0000,  0.0000)
   3 Na     7.171760    9.829058    5.432419    ( 0.0000,  0.0000,  0.0000)
   4 Na    10.098264    7.781518    6.405297    ( 0.0000,  0.0000,  0.0000)
   5 Na     9.554603    6.632334    9.892479    ( 0.0000,  0.0000,  0.0000)

Unit cell:
           periodic     x           y           z      points  spacing
  1. axis:    no    16.000000    0.000000    0.000000    64     0.2500
  2. axis:    no     0.000000   16.000000    0.000000    64     0.2500
  3. axis:    no     0.000000    0.000000   16.000000    64     0.2500

  Lengths:  16.000000  16.000000  16.000000
  Angles:   90.000000  90.000000  90.000000

Effective grid spacing dv^(1/3) = 0.2500

                     log10-error:    total        iterations:
           time      wfs    density  energy       fermi  poisson
iter:   1  18:09:49  -0.89   +inf    17.289036    5             
iter:   2  18:09:54  -2.02  -0.77    17.309625    3             
iter:   3  18:09:58  -2.17  -0.82    17.380795    6             
iter:   4  18:10:03  -3.51  -1.34    17.383490    3             
iter:   5  18:10:08  -3.47  -1.47    17.383455    3             
iter:   6  18:10:13  -3.62  -1.71    17.382298    2             
iter:   7  18:10:18  -3.77  -1.75    17.382223    3             
iter:   8  18:10:22  -4.92  -2.22    17.382289    2             
iter:   9  18:10:27  -5.26  -2.36    17.382241    2             
iter:  10  18:10:32  -5.97  -2.59    17.382228    1             
iter:  11  18:10:37  -6.30  -2.66    17.382214    2             
iter:  12  18:10:42  -5.76  -2.74    17.382181    1             
iter:  13  18:10:47  -6.34  -2.96    17.382177    1             
iter:  14  18:10:51  -6.99  -3.11    17.382176    1             
iter:  15  18:10:56  -7.67  -3.20    17.382176    1             
iter:  16  18:11:01  -7.01  -3.26    17.382176    1             
iter:  17  18:11:06  -8.14  -3.83    17.382176    1             
iter:  18  18:11:11  -8.16  -3.88    17.382176    1             
iter:  19  18:11:15  -8.68  -4.01    17.382176    1             

Converged after 19 iterations.

Dipole moment: (-0.075437, -0.105472, -0.050167) |e|*Ang

Energy contributions relative to reference atoms: (reference = -26511.662975)

Kinetic:         +2.098994
Potential:       -2.730323
External:        +0.000000
XC:             +18.012317
Entropy (-ST):   -0.000123
Local:           +0.001249
--------------------------
Free energy:    +17.382114
Extrapolated:   +17.382176

Non-local vdW-DF-cx correlation energy: 1.960998
Semilocal GGA_X_LV_RPW86+LDA_C_PW energy: -52.068193
(Not including atomic contributions)
Fermi level: -2.14297

 Band  Eigenvalues  Occupancy
    0     -3.71506    2.00000
    1     -2.67128    1.99995
    2     -2.66662    1.99994
    3     -1.64767    0.00010
    4     -1.49921    0.00001
    5     -1.47644    0.00000
    6     -1.21330    0.00000
    7     -0.75512    0.00000
    8     -0.72112    0.00000
    9     -0.45617    0.00000
   10     -0.43755    0.00000
   11     -0.40593    0.00000
   12     -0.34211    0.00000
   13     -0.29933    0.00000
   14     -0.09886    0.00000

Gap: 1.019 eV
Transition (v -> c):
  (s=0, k=0, n=2, [0.00, 0.00, 0.00]) -> (s=0, k=0, n=3, [0.00, 0.00, 0.00])

Forces in eV/Ang:
  0 Na   -0.00442   -0.01336   -0.00331
  1 Na    0.00589   -0.00012   -0.00836
  2 Na    0.00613    0.00065    0.00209
  3 Na    0.00264    0.00141    0.00607
  4 Na   -0.00524    0.00090    0.00734
  5 Na   -0.00479    0.01069   -0.00374

System changes: positions 

Initializing position-dependent things.

Density initialized from wave functions
           .--------------------------------------.  
          /|                                      |  
         / |                                      |  
        /  |                                      |  
       /   |                                      |  
      /    |                                      |  
     /     |                                      |  
    /      |                                      |  
   /       |                                      |  
  /        |                                      |  
 *         |           Na                         |  
 |         |                                      |  
 |         |                Na                    |  
 |         |                                      |  
 |         |            Na                        |  
 |         |                    Na                |  
 |         |                                      |  
 |         |                 Na                   |  
 |         |                                      |  
 |         |             Na                       |  
 |         .--------------------------------------.  
 |        /                                      /   
 |       /                                      /    
 |      /                                      /     
 |     /                                      /      
 |    /                                      /       
 |   /                                      /        
 |  /                                      /         
 | /                                      /          
 |/                                      /           
 *--------------------------------------*            

Positions:
   0 Na    11.604336    4.893819    9.721540    ( 0.0000,  0.0000,  0.0000)
   1 Na     9.117748    7.118860   10.808598    ( 0.0000,  0.0000,  0.0000)
   2 Na     6.583548    9.385054   11.689966    ( 0.0000,  0.0000,  0.0000)
   3 Na     7.617790    8.046875    4.891069    ( 0.0000,  0.0000,  0.0000)
   4 Na     9.669938    6.418055    7.223871    ( 0.0000,  0.0000,  0.0000)
   5 Na     6.992700    8.748097    8.263207    ( 0.0000,  0.0000,  0.0000)

Unit cell:
           periodic     x           y           z      points  spacing
  1. axis:    no    16.000000    0.000000    0.000000    64     0.2500
  2. axis:    no     0.000000   16.000000    0.000000    64     0.2500
  3. axis:    no     0.000000    0.000000   16.000000    64     0.2500

  Lengths:  16.000000  16.000000  16.000000
  Angles:   90.000000  90.000000  90.000000

Effective grid spacing dv^(1/3) = 0.2500

                     log10-error:    total        iterations:
           time      wfs    density  energy       fermi  poisson
iter:   1  18:11:22  +0.41   +inf    13.604502    29            
iter:   2  18:11:27  -0.53  -0.01    14.531198    5             
iter:   3  18:11:31  -1.13  -0.05    16.501435    9             
iter:   4  18:11:36  -1.45  -0.21    17.437723    9             
iter:   5  18:11:41  -2.48  -0.57    17.465009    1             
iter:   6  18:11:46  -2.09  -0.60    17.447809    6             
iter:   7  18:11:51  -2.81  -0.87    17.415091    3             
iter:   8  18:11:56  -2.63  -0.93    17.420019    4             
iter:   9  18:12:00  -3.87  -1.29    17.417477    3             
iter:  10  18:12:05  -3.22  -1.36    17.409469    2             
iter:  11  18:12:10  -4.00  -1.72    17.409100    2             
iter:  12  18:12:15  -5.11  -1.82    17.409330    2             
iter:  13  18:12:20  -5.43  -1.91    17.409256    2             
iter:  14  18:12:25  -4.74  -1.97    17.408733    2             
iter:  15  18:12:29  -5.65  -2.14    17.408759    2             
iter:  16  18:12:34  -6.14  -2.20    17.408762    1             
iter:  17  18:12:39  -5.85  -2.24    17.408706    1             
iter:  18  18:12:44  -5.70  -2.30    17.408592    1             
iter:  19  18:12:49  -5.65  -2.41    17.408525    2             
iter:  20  18:12:54  -5.96  -2.61    17.408488    2             
iter:  21  18:12:58  -6.80  -2.71    17.408480    1             
iter:  22  18:13:03  -5.60  -2.74    17.408454    1             
iter:  23  18:13:08  -7.17  -3.27    17.408454    1             
iter:  24  18:13:13  -7.28  -3.32    17.408453    1             
iter:  25  18:13:18  -7.97  -3.48    17.408453    1             
iter:  26  18:13:23  -7.93  -3.54    17.408453    1             
iter:  27  18:13:27  -8.40  -3.72    17.408453    1             
iter:  28  18:13:32  -8.55  -3.79    17.408453    1             
iter:  29  18:13:37  -9.30  -3.96    17.408453    1             
iter:  30  18:13:42  -8.55  -3.99    17.408453    1             
iter:  31  18:13:47  -9.08  -4.14    17.408453    1             

Converged after 31 iterations.

Dipole moment: (0.032722, -0.018678, -0.011879) |e|*Ang

Energy contributions relative to reference atoms: (reference = -26511.662975)

Kinetic:         +2.445460
Potential:       -3.124157
External:        +0.000000
XC:             +18.084291
Entropy (-ST):   -0.000069
Local:           +0.002894
--------------------------
Free energy:    +17.408418
Extrapolated:   +17.408453

Non-local vdW-DF-cx correlation energy: 2.007793
Semilocal GGA_X_LV_RPW86+LDA_C_PW energy: -52.060101
(Not including atomic contributions)
Fermi level: -2.17729

 Band  Eigenvalues  Occupancy
    0     -3.62118    2.00000
    1     -2.73715    1.99997
    2     -2.73198    1.99997
    3     -1.65211    0.00005
    4     -1.48732    0.00000
    5     -1.44691    0.00000
    6     -1.23545    0.00000
    7     -0.69369    0.00000
    8     -0.69140    0.00000
    9     -0.58231    0.00000
   10     -0.56380    0.00000
   11     -0.49041    0.00000
   12     -0.46123    0.00000
   13     -0.26721    0.00000
   14     -0.04019    0.00000

Gap: 1.080 eV
Transition (v -> c):
  (s=0, k=0, n=2, [0.00, 0.00, 0.00]) -> (s=0, k=0, n=3, [0.00, 0.00, 0.00])
System changes: positions 

Initializing position-dependent things.

Density initialized from wave functions
           .--------------------------------------.  
          /|                                      |  
         / |                                      |  
        /  |                                      |  
       /   |                                      |  
      /    |                                      |  
     /     |                                      |  
    /      |                                      |  
   /       |                                      |  
  /        |                                      |  
 *         |                                      |  
 |         |         Na                           |  
 |         |                                      |  
 |         |       Na      NNa                    |  
 |         |                                      |  
 |         |                                      |  
 |         |                                      |  
 |         |             Na   Na                  |  
 |         |                                      |  
 |         |                                      |  
 |         .--------------------------------------.  
 |        /                                      /   
 |       /                                      /    
 |      /                                      /     
 |     /                                      /      
 |    /                                      /       
 |   /                                      /        
 |  /                                      /         
 | /                                      /          
 |/                                      /           
 *--------------------------------------*            

Positions:
   0 Na     8.292709    9.648551    8.712615    ( 0.0000,  0.0000,  0.0000)
   1 Na     6.339792    8.047590   11.096123    ( 0.0000,  0.0000,  0.0000)
   2 Na     4.861697    9.992700    8.312397    ( 0.0000,  0.0000,  0.0000)
   3 Na     7.171760    9.829058    5.432419    ( 0.0000,  0.0000,  0.0000)
   4 Na    10.098264    7.781518    6.405297    ( 0.0000,  0.0000,  0.0000)
   5 Na     9.554603    6.632334    9.892479    ( 0.0000,  0.0000,  0.0000)

Unit cell:
           periodic     x           y           z      points  spacing
  1. axis:    no    16.000000    0.000000    0.000000    64     0.2500
  2. axis:    no     0.000000   16.000000    0.000000    64     0.2500
  3. axis:    no     0.000000    0.000000   16.000000    64     0.2500

  Lengths:  16.000000  16.000000  16.000000
  Angles:   90.000000  90.000000  90.000000

Effective grid spacing dv^(1/3) = 0.2500

                     log10-error:    total        iterations:
           time      wfs    density  energy       fermi  poisson
iter:   1  18:13:52  +0.26   +inf    16.049741    26            
iter:   2  18:13:57  -0.79  -0.14    16.312474    4             
iter:   3  18:14:02  -1.31  -0.18    17.344095    8             
iter:   4  18:14:06  -1.94  -0.46    17.381242    4             
iter:   5  18:14:11  -2.17  -0.54    17.435164    4             
iter:   6  18:14:16  -2.46  -0.82    17.401513    4             
iter:   7  18:14:21  -2.81  -0.97    17.400527    3             
iter:   8  18:14:26  -3.12  -1.19    17.390061    2             
iter:   9  18:14:31  -3.37  -1.35    17.382616    3             
iter:  10  18:14:35  -3.84  -1.52    17.383031    2             
iter:  11  18:14:40  -4.47  -1.81    17.382762    2             
iter:  12  18:14:45  -4.84  -1.87    17.382513    2             
iter:  13  18:14:50  -5.44  -2.03    17.382463    2             
iter:  14  18:14:55  -5.37  -2.07    17.382511    2             
iter:  15  18:15:00  -5.93  -2.15    17.382510    2             
iter:  16  18:15:05  -6.03  -2.21    17.382439    2             
iter:  17  18:15:10  -5.52  -2.26    17.382315    1             
iter:  18  18:15:15  -6.35  -2.39    17.382285    1             
iter:  19  18:15:21  -5.69  -2.42    17.382223    2             
iter:  20  18:15:26  -6.33  -2.57    17.382198    1             
iter:  21  18:15:31  -6.42  -2.61    17.382184    1             
iter:  22  18:15:36  -6.11  -2.73    17.382176    1             
iter:  23  18:15:41  -7.02  -3.00    17.382174    1             
iter:  24  18:15:46  -6.46  -3.07    17.382174    1             
iter:  25  18:15:51  -7.63  -3.43    17.382174    1             
iter:  26  18:15:57  -7.66  -3.47    17.382175    1             
iter:  27  18:16:02  -8.10  -3.69    17.382176    1             
iter:  28  18:16:07  -8.40  -3.80    17.382176    1             
iter:  29  18:16:12  -9.19  -4.10    17.382176    1             

Converged after 29 iterations.

Dipole moment: (-0.075429, -0.105368, -0.050198) |e|*Ang

Energy contributions relative to reference atoms: (reference = -26511.662975)

Kinetic:         +2.098575
Potential:       -2.730540
External:        +0.000000
XC:             +18.012439
Entropy (-ST):   -0.000123
Local:           +0.001763
--------------------------
Free energy:    +17.382115
Extrapolated:   +17.382176

Non-local vdW-DF-cx correlation energy: 1.960975
Semilocal GGA_X_LV_RPW86+LDA_C_PW energy: -52.067894
(Not including atomic contributions)
Fermi level: -2.14301

 Band  Eigenvalues  Occupancy
    0     -3.71510    2.00000
    1     -2.67134    1.99995
    2     -2.66668    1.99994
    3     -1.64769    0.00010
    4     -1.49926    0.00001
    5     -1.47653    0.00000
    6     -1.21334    0.00000
    7     -0.75513    0.00000
    8     -0.72113    0.00000
    9     -0.45616    0.00000
   10     -0.43761    0.00000
   11     -0.40600    0.00000
   12     -0.34211    0.00000
   13     -0.29932    0.00000
   14     -0.09885    0.00000

Gap: 1.019 eV
Transition (v -> c):
  (s=0, k=0, n=2, [0.00, 0.00, 0.00]) -> (s=0, k=0, n=3, [0.00, 0.00, 0.00])
Timing:                                      incl.     excl.
-------------------------------------------------------------------
Density initialized from wave functions:     2.332     2.332   0.2% |
 Symmetrize density:                         0.000     0.000   0.0% |
Forces:                                      5.170     5.170   0.4% |
Hamiltonian:                                44.110     0.056   0.0% |
 Atomic:                                     2.210     0.009   0.0% |
  XC Correction:                             2.201     2.201   0.2% |
 Calculate atomic Hamiltonians:              1.784     1.784   0.1% |
 Communicate:                                0.000     0.000   0.0% |
 Initialize Hamiltonian:                     0.000     0.000   0.0% |
 Poisson:                                    0.113     0.113   0.0% |
 XC 3D grid:                                39.946     0.309   0.0% |
  van der Waals:                            39.637     1.027   0.1% |
   libvdwxc nonlocal:                       28.409    28.409   2.4% ||
   redistribute:                             1.148     1.148   0.1% |
   semilocal:                                9.053     9.053   0.8% |
LCAO initialization:                         0.098     0.017   0.0% |
 LCAO eigensolver:                           0.011     0.000   0.0% |
  Calculate projections:                     0.000     0.000   0.0% |
  DenseAtomicCorrection:                     0.000     0.000   0.0% |
  Distribute overlap matrix:                 0.000     0.000   0.0% |
  Orbital Layouts:                           0.000     0.000   0.0% |
  Potential matrix:                          0.010     0.010   0.0% |
 LCAO to grid:                               0.049     0.049   0.0% |
 Set positions (LCAO WFS):                   0.022     0.004   0.0% |
  Basic WFS set positions:                   0.000     0.000   0.0% |
  Basis functions set positions:             0.000     0.000   0.0% |
  P tci:                                     0.011     0.011   0.0% |
  ST tci:                                    0.003     0.003   0.0% |
  mktci:                                     0.004     0.004   0.0% |
PWDescriptor:                                0.011     0.011   0.0% |
Redistribute:                                0.005     0.005   0.0% |
SCF-cycle:                                1133.154     0.133   0.0% |
 Davidson:                                  76.696    14.956   1.3% ||
  Apply H:                                  12.172    11.702   1.0% |
   HMM T:                                    0.470     0.470   0.0% |
  Subspace diag:                            15.078     0.027   0.0% |
   calc_h_matrix:                           13.329     1.073   0.1% |
    Apply H:                                12.256    11.717   1.0% |
     HMM T:                                  0.539     0.539   0.0% |
   diagonalize:                              0.051     0.051   0.0% |
   rotate_psi:                               1.670     1.670   0.1% |
  calc. matrices:                           31.404     7.032   0.6% |
   Apply H:                                 24.372    23.416   2.0% ||
    HMM T:                                   0.957     0.957   0.1% |
  diagonalize:                               0.216     0.216   0.0% |
  rotate_psi:                                2.871     2.871   0.2% |
 Density:                                   61.897     0.005   0.0% |
  Atomic density matrices:                   0.173     0.173   0.0% |
  Mix:                                      51.932    51.932   4.4% |-|
  Multipole moments:                         0.047     0.047   0.0% |
  Pseudo density:                            9.740     9.736   0.8% |
   Symmetrize density:                       0.004     0.004   0.0% |
 Hamiltonian:                              994.236     1.244   0.1% |
  Atomic:                                   49.940     0.197   0.0% |
   XC Correction:                           49.742    49.742   4.2% |-|
  Calculate atomic Hamiltonians:            40.237    40.237   3.4% ||
  Communicate:                               0.002     0.002   0.0% |
  Poisson:                                   2.433     2.433   0.2% |
  XC 3D grid:                              900.380     6.909   0.6% |
   van der Waals:                          893.471    23.514   2.0% ||
    libvdwxc nonlocal:                     640.517   640.517  53.7% |--------------------|
    redistribute:                           25.343    25.343   2.1% ||
    semilocal:                             204.097   204.097  17.1% |------|
 Orthonormalize:                             0.192     0.001   0.0% |
  calc_s_matrix:                             0.033     0.033   0.0% |
  inverse-cholesky:                          0.003     0.003   0.0% |
  projections:                               0.113     0.113   0.0% |
  rotate_psi_s:                              0.042     0.042   0.0% |
Set symmetry:                                0.001     0.001   0.0% |
Other:                                       8.679     8.679   0.7% |
-------------------------------------------------------------------
Total:                                              1193.559 100.0%

Memory usage: 1.01 GiB
Date: Mon Feb 10 18:16:12 2020
