
  ___ ___ ___ _ _ _  
 |   |   |_  | | | | 
 | | | | | . | | | | 
 |__ |  _|___|_____|  19.8.1
 |___|_|             

User:   ericlin@hebbe12-1
Date:   Mon Feb  3 22:44:33 2020
Arch:   x86_64
Pid:    23372
Python: 3.7.2
gpaw:   /apps/Hebbe7/software/MPI/intel/2019.1.144-GCC-8.2.0-2.31.1/impi/2018.4.274/GPAW/19.8.1-Python-3.7.2/lib/python3.7/site-packages/gpaw
_gpaw:  /apps/Hebbe7/software/MPI/intel/2019.1.144-GCC-8.2.0-2.31.1/impi/2018.4.274/GPAW/19.8.1-Python-3.7.2/bin/
        gpaw-python
ase:    /apps/Hebbe7/software/MPI/intel/2019.1.144-GCC-8.2.0-2.31.1/impi/2018.4.274/ASE/3.18.0-Python-3.7.2/lib/python3.7/site-packages/ase (version 3.18.0)
numpy:  /apps/Hebbe7/software/MPI/intel/2019.1.144-GCC-8.2.0-2.31.1/impi/2018.4.274/SciPy-bundle/2019.03/lib/python3.7/site-packages/numpy (version 1.16.2)
scipy:  /apps/Hebbe7/software/MPI/intel/2019.1.144-GCC-8.2.0-2.31.1/impi/2018.4.274/SciPy-bundle/2019.03/lib/python3.7/site-packages/scipy (version 1.2.1)
libxc:  4.3.4
units:  Angstrom and eV
cores:  4

Input parameters:
  h: 0.25
  mode: {ecut: 350.0,
         gammacentered: False,
         name: pw}
  nbands: 15
  occupations: {name: fermi-dirac,
                width: 0.05}
  setups: {Na: 1}

System changes: positions, numbers, cell, pbc, initial_charges, initial_magmoms 

Initialize ...

Na-setup:
  name: Sodium
  id: fa5c50181d04022fed15b2593599c257
  Z: 11
  valence: 1
  core: 10
  charge: 0.0
  file: /apps/Common/Core/GPAW-setups/0.9.20000/Na.1.LDA.gz
  compensation charges: gauss, rc=0.43, lmax=2
  cutoffs: 2.36(filt), 3.60(core),
  valence states:
                energy  radius
    3s(1.00)    -2.819   1.349
    3p(0.00)    -0.774   1.349
    *s          24.392   1.349

  Using partial waves for Na as LCAO basis

Reference energy: -26392.251304

Spin-paired calculation

Occupation numbers:
  Fermi-Dirac: width=0.0500 eV

Convergence criteria:
  Maximum total energy change: 0.0005 eV / electron
  Maximum integral of absolute density change: 0.0001 electrons
  Maximum integral of absolute eigenstate change: 4e-08 eV^2
  Maximum number of iterations: 333

Symmetries present (total): 1

  ( 1  0  0)
  ( 0  1  0)
  ( 0  0  1)

1 k-point (Gamma)
1 k-point in the irreducible part of the Brillouin zone
       k-points in crystal coordinates                weights
   0:     0.00000000    0.00000000    0.00000000          1/1

Wave functions: Plane wave expansion
  Cutoff energy: 350.000 eV
  Number of coefficients: 61037 (reduced to 30519)
  Pulay-stress correction: 0.000000 eV/Ang^3 (de/decut=0.000000)
  Using FFTW library
  ScaLapack parameters: grid=1x1, blocksize=None
  Wavefunction extrapolation:
    Improved wavefunction reuse through dual PAW basis 

Eigensolver
   Davidson(niter=2, smin=None, normalize=True) 

Densities:
  Coarse grid: 64*64*64 grid
  Fine grid: 128*128*128 grid
  Total Charge: 0.000000 

Density mixing:
  Method: separate
  Backend: pulay
  Linear mixing parameter: 0.05
  Mixing with 5 old densities
  Damping of long wave oscillations: 50 

Hamiltonian:
  XC and Coulomb potentials evaluated on a 128*128*128 grid
  Using the LDA Exchange-Correlation functional
 

Memory estimate:
  Process memory now: 278.75 MiB
  Calculator: 61.61 MiB
    Density: 30.83 MiB
      Arrays: 13.00 MiB
      Localized functions: 12.83 MiB
      Mixer: 5.00 MiB
    Hamiltonian: 8.76 MiB
      Arrays: 8.50 MiB
      XC: 0.00 MiB
      Poisson: 0.00 MiB
      vbar: 0.26 MiB
    Wavefunctions: 22.02 MiB
      Arrays psit_nG: 6.99 MiB
      Eigensolver: 9.33 MiB
      Projections: 0.00 MiB
      Projectors: 0.41 MiB
      PW-descriptor: 5.30 MiB

Total number of cores used: 4
Domain decomposition: 2 x 2 x 1

Number of atoms: 6
Number of atomic orbitals: 24
Number of bands in calculation: 15
Bands to converge: occupied states only
Number of valence electrons: 6

... initialized

Initializing position-dependent things.

Density initialized from atomic densities
Creating initial wave functions:
  15 bands from LCAO basis set

           .--------------------------------------.  
          /|                                      |  
         / |                                      |  
        /  |                                      |  
       /   |                                      |  
      /    |                                      |  
     /     |                                      |  
    /      |                                      |  
   /       |                                      |  
  /        |                                      |  
 *         |           Na                         |  
 |         |                                      |  
 |         |                Na                    |  
 |         |                                      |  
 |         |            Na                        |  
 |         |                    Na                |  
 |         |                                      |  
 |         |                Na                    |  
 |         |                                      |  
 |         |             Na                       |  
 |         .--------------------------------------.  
 |        /                                      /   
 |       /                                      /    
 |      /                                      /     
 |     /                                      /      
 |    /                                      /       
 |   /                                      /        
 |  /                                      /         
 | /                                      /          
 |/                                      /           
 *--------------------------------------*            

Positions:
   0 Na    11.424955    5.046215    9.661160    ( 0.0000,  0.0000,  0.0000)
   1 Na     9.091214    7.135542   10.719357    ( 0.0000,  0.0000,  0.0000)
   2 Na     6.710298    9.263471   11.516303    ( 0.0000,  0.0000,  0.0000)
   3 Na     7.680133    8.011559    5.125248    ( 0.0000,  0.0000,  0.0000)
   4 Na     9.624253    6.463545    7.292195    ( 0.0000,  0.0000,  0.0000)
   5 Na     7.055205    8.690646    8.283979    ( 0.0000,  0.0000,  0.0000)

Unit cell:
           periodic     x           y           z      points  spacing
  1. axis:    no    16.000000    0.000000    0.000000    64     0.2500
  2. axis:    no     0.000000   16.000000    0.000000    64     0.2500
  3. axis:    no     0.000000    0.000000   16.000000    64     0.2500

  Lengths:  16.000000  16.000000  16.000000
  Angles:   90.000000  90.000000  90.000000

Effective grid spacing dv^(1/3) = 0.2500

                     log10-error:    total        iterations:
           time      wfs    density  energy       fermi  poisson
iter:   1  22:44:35  +0.41   +inf    -5.392215    2             
iter:   2  22:44:35  -1.07  -0.50    -5.394842    3             
iter:   3  22:44:35  -1.65  -0.52    -5.267931    6             
iter:   4  22:44:36  -2.08  -0.78    -5.267237    3             
iter:   5  22:44:36  -2.31  -0.88    -5.266536    3             
iter:   6  22:44:37  -2.69  -1.38    -5.268618    3             
iter:   7  22:44:37  -3.12  -1.60    -5.268173    2             
iter:   8  22:44:37  -3.43  -1.70    -5.267699    3             
iter:   9  22:44:38  -3.90  -2.39    -5.267687    2             
iter:  10  22:44:38  -4.26  -2.39    -5.267704    2             
iter:  11  22:44:39  -4.69  -2.71    -5.267697    2             
iter:  12  22:44:39  -5.06  -2.74    -5.267704    2             
iter:  13  22:44:39  -5.47  -2.95    -5.267703    1             
iter:  14  22:44:40  -5.87  -3.10    -5.267704    1             
iter:  15  22:44:40  -6.23  -3.13    -5.267703    1             
iter:  16  22:44:41  -6.66  -3.26    -5.267702    1             
iter:  17  22:44:41  -7.05  -3.46    -5.267702    1             
iter:  18  22:44:41  -7.46  -3.48    -5.267702    1             
iter:  19  22:44:42  -7.83  -3.46    -5.267702    1             
iter:  20  22:44:42  -8.24  -3.49    -5.267702    1             
iter:  21  22:44:43  -8.05  -3.52    -5.267702    1             
iter:  22  22:44:43  -8.81  -3.94    -5.267702    1             
iter:  23  22:44:43  -9.13  -4.00    -5.267702    1             
iter:  24  22:44:44  -9.80  -4.31    -5.267702    1             

Converged after 24 iterations.

Dipole moment: (0.017387, -0.008192, -0.011465) |e|*Ang

Energy contributions relative to reference atoms: (reference = -26392.251304)

Kinetic:        +11.798477
Potential:      -10.858906
External:        +0.000000
XC:              -6.206193
Entropy (-ST):   -0.000016
Local:           -0.001072
--------------------------
Free energy:     -5.267710
Extrapolated:    -5.267702

Fermi level: -2.37542

 Band  Eigenvalues  Occupancy
    0     -4.01733    2.00000
    1     -3.01344    1.99999
    2     -3.01093    1.99999
    3     -1.76691    0.00001
    4     -1.64148    0.00000
    5     -1.62153    0.00000
    6     -1.41919    0.00000
    7     -0.66881    0.00000
    8     -0.63792    0.00000
    9     -0.61964    0.00000
   10     -0.56331    0.00000
   11     -0.46248    0.00000
   12     -0.27708    0.00000
   13     -0.06746    0.00000
   14      0.26428    0.00000

Gap: 1.244 eV
Transition (v -> c):
  (s=0, k=0, n=2, [0.00, 0.00, 0.00]) -> (s=0, k=0, n=3, [0.00, 0.00, 0.00])
System changes: positions 

Initializing position-dependent things.

Density initialized from wave functions
           .--------------------------------------.  
          /|                                      |  
         / |                                      |  
        /  |                                      |  
       /   |                                      |  
      /    |                                      |  
     /     |                                      |  
    /      |                                      |  
   /       |                                      |  
  /        |                                      |  
 *         |                                      |  
 |         |          Na                          |  
 |         |                                      |  
 |         |       Na      Na                     |  
 |         |                Na                    |  
 |         |                                      |  
 |         |                                      |  
 |         |             Na   Na                  |  
 |         |                                      |  
 |         |                                      |  
 |         .--------------------------------------.  
 |        /                                      /   
 |       /                                      /    
 |      /                                      /     
 |     /                                      /      
 |    /                                      /       
 |   /                                      /        
 |  /                                      /         
 | /                                      /          
 |/                                      /           
 *--------------------------------------*            

Positions:
   0 Na     8.210231    9.489933    8.656516    ( 0.0000,  0.0000,  0.0000)
   1 Na     6.417931    8.101846   10.968460    ( 0.0000,  0.0000,  0.0000)
   2 Na     5.009862    9.947279    8.321395    ( 0.0000,  0.0000,  0.0000)
   3 Na     7.211492    9.790525    5.577356    ( 0.0000,  0.0000,  0.0000)
   4 Na     9.992557    7.848605    6.505352    ( 0.0000,  0.0000,  0.0000)
   5 Na     9.477264    6.754058    9.822530    ( 0.0000,  0.0000,  0.0000)

Unit cell:
           periodic     x           y           z      points  spacing
  1. axis:    no    16.000000    0.000000    0.000000    64     0.2500
  2. axis:    no     0.000000   16.000000    0.000000    64     0.2500
  3. axis:    no     0.000000    0.000000   16.000000    64     0.2500

  Lengths:  16.000000  16.000000  16.000000
  Angles:   90.000000  90.000000  90.000000

Effective grid spacing dv^(1/3) = 0.2500

                     log10-error:    total        iterations:
           time      wfs    density  energy       fermi  poisson
iter:   1  22:44:44  +0.39   +inf    -8.111413    25            
iter:   2  22:44:45  -0.54  -0.06    -7.730699    4             
iter:   3  22:44:45  -1.14  -0.09    -5.590117    28            
iter:   4  22:44:45  -1.79  -0.44    -5.532710    3             
iter:   5  22:44:46  -2.09  -0.49    -5.330126    6             
iter:   6  22:44:46  -2.55  -0.86    -5.356551    4             
iter:   7  22:44:47  -2.83  -0.91    -5.323162    4             
iter:   8  22:44:47  -3.53  -1.29    -5.324520    1             
iter:   9  22:44:47  -3.90  -1.37    -5.325563    3             
iter:  10  22:44:48  -4.32  -1.66    -5.325330    2             
iter:  11  22:44:48  -4.84  -1.83    -5.325313    2             
iter:  12  22:44:49  -5.10  -1.87    -5.325256    2             
iter:  13  22:44:49  -5.26  -2.02    -5.325468    2             
iter:  14  22:44:49  -5.79  -2.17    -5.325427    2             
iter:  15  22:44:50  -6.14  -2.30    -5.325392    2             
iter:  16  22:44:50  -6.69  -2.47    -5.325390    2             
iter:  17  22:44:51  -6.36  -2.54    -5.325393    1             
iter:  18  22:44:51  -7.33  -2.93    -5.325392    1             
iter:  19  22:44:51  -7.79  -2.97    -5.325392    1             
iter:  20  22:44:52  -7.83  -3.02    -5.325392    1             
iter:  21  22:44:52  -8.36  -3.11    -5.325393    1             
iter:  22  22:44:53  -8.10  -3.17    -5.325393    1             
iter:  23  22:44:53  -8.70  -3.31    -5.325393    1             
iter:  24  22:44:54  -8.10  -3.36    -5.325394    1             
iter:  25  22:44:54  -8.88  -3.56    -5.325394    1             
iter:  26  22:44:54  -8.54  -3.63    -5.325394    1             
iter:  27  22:44:55  -9.50  -4.09    -5.325394    1             

Converged after 27 iterations.

Dipole moment: (-0.066170, -0.105379, -0.045037) |e|*Ang

Energy contributions relative to reference atoms: (reference = -26392.251304)

Kinetic:        +11.980181
Potential:      -10.846221
External:        +0.000000
XC:              -6.457691
Entropy (-ST):   -0.000036
Local:           -0.001645
--------------------------
Free energy:     -5.325411
Extrapolated:    -5.325394

Fermi level: -2.34693

 Band  Eigenvalues  Occupancy
    0     -4.11771    2.00000
    1     -2.94461    1.99999
    2     -2.93661    1.99998
    3     -1.78385    0.00003
    4     -1.63163    0.00000
    5     -1.62291    0.00000
    6     -1.33647    0.00000
    7     -0.74456    0.00000
    8     -0.73319    0.00000
    9     -0.37303    0.00000
   10     -0.34494    0.00000
   11     -0.30129    0.00000
   12     -0.27394    0.00000
   13     -0.11091    0.00000
   14      0.23976    0.00000

Gap: 1.153 eV
Transition (v -> c):
  (s=0, k=0, n=2, [0.00, 0.00, 0.00]) -> (s=0, k=0, n=3, [0.00, 0.00, 0.00])
System changes: positions 

Initializing position-dependent things.

Density initialized from wave functions
           .--------------------------------------.  
          /|                                      |  
         / |                                      |  
        /  |                                      |  
       /   |                                      |  
      /    |                                      |  
     /     |                                      |  
    /      |                                      |  
   /       |                                      |  
  /        |                                      |  
 *         |           Na                         |  
 |         |                                      |  
 |         |                Na                    |  
 |         |                                      |  
 |         |            Na                        |  
 |         |                    Na                |  
 |         |                                      |  
 |         |                Na                    |  
 |         |                                      |  
 |         |             Na                       |  
 |         .--------------------------------------.  
 |        /                                      /   
 |       /                                      /    
 |      /                                      /     
 |     /                                      /      
 |    /                                      /       
 |   /                                      /        
 |  /                                      /         
 | /                                      /          
 |/                                      /           
 *--------------------------------------*            

Positions:
   0 Na    11.424955    5.046215    9.661160    ( 0.0000,  0.0000,  0.0000)
   1 Na     9.091214    7.135542   10.719357    ( 0.0000,  0.0000,  0.0000)
   2 Na     6.710298    9.263471   11.516303    ( 0.0000,  0.0000,  0.0000)
   3 Na     7.680133    8.011559    5.125248    ( 0.0000,  0.0000,  0.0000)
   4 Na     9.624253    6.463545    7.292195    ( 0.0000,  0.0000,  0.0000)
   5 Na     7.055205    8.690646    8.283979    ( 0.0000,  0.0000,  0.0000)

Unit cell:
           periodic     x           y           z      points  spacing
  1. axis:    no    16.000000    0.000000    0.000000    64     0.2500
  2. axis:    no     0.000000   16.000000    0.000000    64     0.2500
  3. axis:    no     0.000000    0.000000   16.000000    64     0.2500

  Lengths:  16.000000  16.000000  16.000000
  Angles:   90.000000  90.000000  90.000000

Effective grid spacing dv^(1/3) = 0.2500

                     log10-error:    total        iterations:
           time      wfs    density  energy       fermi  poisson
iter:   1  22:44:55  +0.57   +inf   -11.891775    25            
iter:   2  22:44:56  -0.31  +0.07   -11.045137    5             
iter:   3  22:44:56  -1.05  +0.05    -7.707755    25            
iter:   4  22:44:57  -1.44  -0.10    -5.577240    24            
iter:   5  22:44:57  -2.11  -0.43    -5.474845    3             
iter:   6  22:44:58  -1.94  -0.48    -5.314226    10            
iter:   7  22:44:58  -2.88  -0.78    -5.302068    2             
iter:   8  22:44:58  -2.85  -0.86    -5.265257    4             
iter:   9  22:44:59  -3.72  -1.21    -5.267537    3             
iter:  10  22:44:59  -3.84  -1.31    -5.267800    2             
iter:  11  22:45:00  -4.32  -1.66    -5.267829    2             
iter:  12  22:45:00  -4.98  -1.86    -5.267807    2             
iter:  13  22:45:01  -5.40  -1.92    -5.267805    1             
iter:  14  22:45:01  -5.41  -2.00    -5.267684    2             
iter:  15  22:45:02  -6.09  -2.17    -5.267646    1             
iter:  16  22:45:02  -6.32  -2.21    -5.267626    1             
iter:  17  22:45:02  -6.07  -2.25    -5.267676    2             
iter:  18  22:45:03  -5.85  -2.40    -5.267711    2             
iter:  19  22:45:03  -6.36  -2.58    -5.267703    2             
iter:  20  22:45:04  -7.04  -3.06    -5.267702    1             
iter:  21  22:45:04  -7.64  -3.14    -5.267702    1             
iter:  22  22:45:04  -7.72  -3.38    -5.267702    1             
iter:  23  22:45:05  -8.43  -3.54    -5.267702    1             
iter:  24  22:45:05  -8.97  -3.93    -5.267702    1             
