
  ___ ___ ___ _ _ _  
 |   |   |_  | | | | 
 | | | | | . | | | | 
 |__ |  _|___|_____|  19.8.1
 |___|_|             

User:   ericlin@hebbe04-7
Date:   Mon Feb 10 18:16:12 2020
Arch:   x86_64
Pid:    6008
Python: 3.7.2
gpaw:   /apps/Hebbe7/software/MPI/GCC/8.2.0-2.31.1/OpenMPI/3.1.3/GPAW/19.8.1-Python-3.7.2-libvdwxc/lib/python3.7/site-packages/gpaw
_gpaw:  /apps/Hebbe7/software/MPI/GCC/8.2.0-2.31.1/OpenMPI/3.1.3/GPAW/19.8.1-Python-3.7.2-libvdwxc/bin/
        gpaw-python
ase:    /apps/Hebbe7/software/MPI/GCC/8.2.0-2.31.1/OpenMPI/3.1.3/ASE/3.18.0-Python-3.7.2/lib/python3.7/site-packages/ase (version 3.18.0)
numpy:  /apps/Hebbe7/software/MPI/GCC/8.2.0-2.31.1/OpenMPI/3.1.3/SciPy-bundle/2019.03/lib/python3.7/site-packages/numpy (version 1.16.2)
scipy:  /apps/Hebbe7/software/MPI/GCC/8.2.0-2.31.1/OpenMPI/3.1.3/SciPy-bundle/2019.03/lib/python3.7/site-packages/scipy (version 1.2.1)
libxc:  4.3.4
units:  Angstrom and eV
cores:  1

Input parameters:
  h: 0.25
  mode: {ecut: 500.0,
         gammacentered: False,
         name: pw}
  nbands: 10
  occupations: {name: fermi-dirac,
                width: 0.05}
  setups: {Na: 1}
  xc: PBE

System changes: positions, numbers, cell, pbc, initial_charges, initial_magmoms 

Initialize ...

Na-setup:
  name: Sodium
  id: 8dbce52902f3add137ce7d12431c9cac
  Z: 11
  valence: 1
  core: 10
  charge: 0.0
  file: /apps/Common/Core/GPAW-setups/0.9.20000/Na.1.PBE.gz
  compensation charges: gauss, rc=0.43, lmax=2
  cutoffs: 2.36(filt), 3.60(core),
  valence states:
                energy  radius
    3s(1.00)    -2.744   1.349
    3p(0.00)    -0.743   1.349
    *s          24.468   1.349

  Using partial waves for Na as LCAO basis

Reference energy: -26511.662975

Spin-paired calculation

Occupation numbers:
  Fermi-Dirac: width=0.0500 eV

Convergence criteria:
  Maximum total energy change: 0.0005 eV / electron
  Maximum integral of absolute density change: 0.0001 electrons
  Maximum integral of absolute eigenstate change: 4e-08 eV^2
  Maximum number of iterations: 333

Symmetries present (total): 1

  ( 1  0  0)
  ( 0  1  0)
  ( 0  0  1)

1 k-point (Gamma)
1 k-point in the irreducible part of the Brillouin zone
       k-points in crystal coordinates                weights
   0:     0.00000000    0.00000000    0.00000000          1/1

Wave functions: Plane wave expansion
  Cutoff energy: 500.000 eV
  Number of coefficients: 103959 (reduced to 51980)
  Pulay-stress correction: 0.000000 eV/Ang^3 (de/decut=0.000000)
  Using FFTW library
  ScaLapack parameters: grid=1x1, blocksize=None
  Wavefunction extrapolation:
    Improved wavefunction reuse through dual PAW basis 

Eigensolver
   Davidson(niter=2, smin=None, normalize=True) 

Densities:
  Coarse grid: 64*64*64 grid
  Fine grid: 128*128*128 grid
  Total Charge: 0.000000 

Density mixing:
  Method: separate
  Backend: pulay
  Linear mixing parameter: 0.05
  Mixing with 5 old densities
  Damping of long wave oscillations: 50 

Hamiltonian:
  XC and Coulomb potentials evaluated on a 128*128*128 grid
  Using the PBE Exchange-Correlation functional
 

XC parameters: PBE with 2 nearest neighbor stencil

Memory estimate:
  Process memory now: 1039.19 MiB
  Calculator: 186.85 MiB
    Density: 123.30 MiB
      Arrays: 52.00 MiB
      Localized functions: 51.30 MiB
      Mixer: 20.00 MiB
    Hamiltonian: 35.05 MiB
      Arrays: 34.00 MiB
      XC: 0.00 MiB
      Poisson: 0.00 MiB
      vbar: 1.05 MiB
    Wavefunctions: 28.50 MiB
      Arrays psit_nG: 7.93 MiB
      Eigensolver: 11.91 MiB
      Projections: 0.00 MiB
      Projectors: 2.78 MiB
      PW-descriptor: 5.89 MiB

Total number of cores used: 1

Number of atoms: 6
Number of atomic orbitals: 24
Number of bands in calculation: 10
Bands to converge: occupied states only
Number of valence electrons: 6

... initialized

Initializing position-dependent things.

Density initialized from atomic densities
Creating initial wave functions:
  10 bands from LCAO basis set

           .--------------------------------------.  
          /|                                      |  
         / |                                      |  
        /  |                                      |  
       /   |                                      |  
      /    |                                      |  
     /     |                                      |  
    /      |                                      |  
   /       |                                      |  
  /        |                                      |  
 *         |           Na                         |  
 |         |                                      |  
 |         |                Na                    |  
 |         |                                      |  
 |         |            Na                        |  
 |         |                    Na                |  
 |         |                                      |  
 |         |                Na                    |  
 |         |                                      |  
 |         |             Na                       |  
 |         .--------------------------------------.  
 |        /                                      /   
 |       /                                      /    
 |      /                                      /     
 |     /                                      /      
 |    /                                      /       
 |   /                                      /        
 |  /                                      /         
 | /                                      /          
 |/                                      /           
 *--------------------------------------*            

Positions:
   0 Na    11.424955    5.046215    9.661160    ( 0.0000,  0.0000,  0.0000)
   1 Na     9.091214    7.135542   10.719357    ( 0.0000,  0.0000,  0.0000)
   2 Na     6.710298    9.263471   11.516303    ( 0.0000,  0.0000,  0.0000)
   3 Na     7.680133    8.011559    5.125248    ( 0.0000,  0.0000,  0.0000)
   4 Na     9.624253    6.463545    7.292195    ( 0.0000,  0.0000,  0.0000)
   5 Na     7.055205    8.690646    8.283979    ( 0.0000,  0.0000,  0.0000)

Unit cell:
           periodic     x           y           z      points  spacing
  1. axis:    no    16.000000    0.000000    0.000000    64     0.2500
  2. axis:    no     0.000000   16.000000    0.000000    64     0.2500
  3. axis:    no     0.000000    0.000000   16.000000    64     0.2500

  Lengths:  16.000000  16.000000  16.000000
  Angles:   90.000000  90.000000  90.000000

Effective grid spacing dv^(1/3) = 0.2500

                     log10-error:    total        iterations:
           time      wfs    density  energy       fermi  poisson
iter:   1  18:16:17  +0.22   +inf    -4.910864    2             
iter:   2  18:16:20  -1.07  -0.51    -4.921924    2             
iter:   3  18:16:22  -1.69  -0.53    -4.825802    5             
iter:   4  18:16:25  -2.27  -0.77    -4.828684    3             
iter:   5  18:16:28  -2.60  -0.88    -4.831477    3             
iter:   6  18:16:31  -3.09  -1.40    -4.832810    3             
iter:   7  18:16:34  -3.67  -1.58    -4.832621    2             
iter:   8  18:16:36  -3.87  -1.62    -4.831425    3             
iter:   9  18:16:39  -4.61  -2.31    -4.831357    2             
iter:  10  18:16:42  -5.07  -2.40    -4.831374    1             
iter:  11  18:16:45  -5.50  -2.63    -4.831370    1             
iter:  12  18:16:48  -6.00  -2.64    -4.831375    1             
iter:  13  18:16:50  -6.35  -2.68    -4.831375    1             
iter:  14  18:16:53  -6.73  -2.79    -4.831374    1             
iter:  15  18:16:56  -6.73  -2.87    -4.831373    2             
iter:  16  18:16:59  -7.52  -3.00    -4.831374    1             
iter:  17  18:17:01  -7.18  -3.02    -4.831375    1             
iter:  18  18:17:04  -7.79  -3.29    -4.831375    1             
iter:  19  18:17:07  -7.43  -3.35    -4.831376    1             
iter:  20  18:17:10  -8.30  -3.54    -4.831376    1             
iter:  21  18:17:13  -8.80  -3.61    -4.831376    1             
iter:  22  18:17:15  -8.94  -3.65    -4.831376    1             
iter:  23  18:17:18  -8.36  -3.71    -4.831376    1             
iter:  24  18:17:21  -9.26  -3.95    -4.831376    1             
iter:  25  18:17:24  -9.00  -4.01    -4.831376    1             

Converged after 25 iterations.

Dipole moment: (0.018479, -0.008595, -0.012046) |e|*Ang

Energy contributions relative to reference atoms: (reference = -26511.662975)

Kinetic:        +11.682962
Potential:      -10.661689
External:        +0.000000
XC:              -5.854557
Entropy (-ST):   -0.000017
Local:           +0.001916
--------------------------
Free energy:     -4.831385
Extrapolated:    -4.831376

Fermi level: -2.26745

 Band  Eigenvalues  Occupancy
    0     -3.89856    2.00000
    1     -2.90215    1.99999
    2     -2.89959    1.99999
    3     -1.66262    0.00001
    4     -1.53520    0.00000
    5     -1.51262    0.00000
    6     -1.33001    0.00000
    7     -0.60525    0.00000
    8     -0.57046    0.00000
    9     -0.51561    0.00000

Gap: 1.237 eV
Transition (v -> c):
  (s=0, k=0, n=2, [0.00, 0.00, 0.00]) -> (s=0, k=0, n=3, [0.00, 0.00, 0.00])
System changes: positions 

Initializing position-dependent things.

Density initialized from wave functions
           .--------------------------------------.  
          /|                                      |  
         / |                                      |  
        /  |                                      |  
       /   |                                      |  
      /    |                                      |  
     /     |                                      |  
    /      |                                      |  
   /       |                                      |  
  /        |                                      |  
 *         |                                      |  
 |         |          Na                          |  
 |         |                                      |  
 |         |       Na      Na                     |  
 |         |                Na                    |  
 |         |                                      |  
 |         |                                      |  
 |         |             Na   Na                  |  
 |         |                                      |  
 |         |                                      |  
 |         .--------------------------------------.  
 |        /                                      /   
 |       /                                      /    
 |      /                                      /     
 |     /                                      /      
 |    /                                      /       
 |   /                                      /        
 |  /                                      /         
 | /                                      /          
 |/                                      /           
 *--------------------------------------*            

Positions:
   0 Na     8.210231    9.489933    8.656516    ( 0.0000,  0.0000,  0.0000)
   1 Na     6.417931    8.101846   10.968460    ( 0.0000,  0.0000,  0.0000)
   2 Na     5.009862    9.947279    8.321395    ( 0.0000,  0.0000,  0.0000)
   3 Na     7.211492    9.790525    5.577356    ( 0.0000,  0.0000,  0.0000)
   4 Na     9.992557    7.848605    6.505352    ( 0.0000,  0.0000,  0.0000)
   5 Na     9.477264    6.754058    9.822530    ( 0.0000,  0.0000,  0.0000)

Unit cell:
           periodic     x           y           z      points  spacing
  1. axis:    no    16.000000    0.000000    0.000000    64     0.2500
  2. axis:    no     0.000000   16.000000    0.000000    64     0.2500
  3. axis:    no     0.000000    0.000000   16.000000    64     0.2500

  Lengths:  16.000000  16.000000  16.000000
  Angles:   90.000000  90.000000  90.000000

Effective grid spacing dv^(1/3) = 0.2500

                     log10-error:    total        iterations:
           time      wfs    density  energy       fermi  poisson
iter:   1  18:17:27  +0.36   +inf    -7.052950    21            
iter:   2  18:17:30  -0.48  -0.09    -6.949466    3             
iter:   3  18:17:33  -1.21  -0.11    -5.979732    6             
iter:   4  18:17:36  -1.27  -0.22    -5.136666    28            
iter:   5  18:17:38  -2.34  -0.46    -4.959048    3             
iter:   6  18:17:41  -2.39  -0.55    -4.843317    4             
iter:   7  18:17:44  -2.45  -0.84    -4.881076    5             
iter:   8  18:17:47  -2.71  -0.97    -4.859729    4             
iter:   9  18:17:50  -3.47  -1.32    -4.860497    2             
iter:  10  18:17:52  -3.71  -1.43    -4.862854    3             
iter:  11  18:17:55  -4.04  -1.65    -4.862500    2             
iter:  12  18:17:58  -4.84  -1.91    -4.862474    2             
iter:  13  18:18:01  -4.94  -1.94    -4.862514    2             
iter:  14  18:18:03  -5.16  -2.10    -4.862598    2             
iter:  15  18:18:06  -5.65  -2.16    -4.862654    2             
iter:  16  18:18:09  -5.96  -2.31    -4.862667    2             
iter:  17  18:18:12  -5.66  -2.39    -4.862693    2             
iter:  18  18:18:15  -6.60  -2.62    -4.862693    1             
iter:  19  18:18:17  -7.02  -2.66    -4.862696    1             
iter:  20  18:18:20  -6.18  -2.73    -4.862718    1             
iter:  21  18:18:23  -7.16  -2.92    -4.862714    1             
iter:  22  18:18:26  -7.18  -2.98    -4.862715    1             
iter:  23  18:18:28  -7.20  -3.08    -4.862714    1             
iter:  24  18:18:31  -7.72  -3.60    -4.862714    1             
iter:  25  18:18:34  -8.50  -3.78    -4.862714    1             
iter:  26  18:18:37  -9.01  -3.91    -4.862714    1             
iter:  27  18:18:40  -9.04  -3.98    -4.862714    1             
iter:  28  18:18:42  -9.63  -4.09    -4.862714    1             

Converged after 28 iterations.

Dipole moment: (-0.071577, -0.113128, -0.048904) |e|*Ang

Energy contributions relative to reference atoms: (reference = -26511.662975)

Kinetic:        +11.805871
Potential:      -10.598739
External:        +0.000000
XC:              -6.070069
Entropy (-ST):   -0.000037
Local:           +0.000242
--------------------------
Free energy:     -4.862732
Extrapolated:    -4.862714

Fermi level: -2.24071

 Band  Eigenvalues  Occupancy
    0     -4.00165    2.00000
    1     -2.83665    1.99999
    2     -2.82875    1.99998
    3     -1.67902    0.00003
    4     -1.53136    0.00000
    5     -1.52081    0.00000
    6     -1.25654    0.00000
    7     -0.67306    0.00000
    8     -0.65926    0.00000
    9     -0.29674    0.00000

Gap: 1.150 eV
Transition (v -> c):
  (s=0, k=0, n=2, [0.00, 0.00, 0.00]) -> (s=0, k=0, n=3, [0.00, 0.00, 0.00])
System changes: positions 

Initializing position-dependent things.

Density initialized from wave functions
           .--------------------------------------.  
          /|                                      |  
         / |                                      |  
        /  |                                      |  
       /   |                                      |  
      /    |                                      |  
     /     |                                      |  
    /      |                                      |  
   /       |                                      |  
  /        |                                      |  
 *         |           Na                         |  
 |         |                                      |  
 |         |                Na                    |  
 |         |                                      |  
 |         |            Na                        |  
 |         |                    Na                |  
 |         |                                      |  
 |         |                Na                    |  
 |         |                                      |  
 |         |             Na                       |  
 |         .--------------------------------------.  
 |        /                                      /   
 |       /                                      /    
 |      /                                      /     
 |     /                                      /      
 |    /                                      /       
 |   /                                      /        
 |  /                                      /         
 | /                                      /          
 |/                                      /           
 *--------------------------------------*            

Positions:
   0 Na    11.424955    5.046215    9.661160    ( 0.0000,  0.0000,  0.0000)
   1 Na     9.091214    7.135542   10.719357    ( 0.0000,  0.0000,  0.0000)
   2 Na     6.710298    9.263471   11.516303    ( 0.0000,  0.0000,  0.0000)
   3 Na     7.680133    8.011559    5.125248    ( 0.0000,  0.0000,  0.0000)
   4 Na     9.624253    6.463545    7.292195    ( 0.0000,  0.0000,  0.0000)
   5 Na     7.055205    8.690646    8.283979    ( 0.0000,  0.0000,  0.0000)

Unit cell:
           periodic     x           y           z      points  spacing
  1. axis:    no    16.000000    0.000000    0.000000    64     0.2500
  2. axis:    no     0.000000   16.000000    0.000000    64     0.2500
  3. axis:    no     0.000000    0.000000   16.000000    64     0.2500

  Lengths:  16.000000  16.000000  16.000000
  Angles:   90.000000  90.000000  90.000000

Effective grid spacing dv^(1/3) = 0.2500

                     log10-error:    total        iterations:
           time      wfs    density  energy       fermi  poisson
iter:   1  18:18:46  +0.56   +inf   -10.840645    30            
iter:   2  18:18:49  -0.30  +0.05   -10.204791    4             
iter:   3  18:18:51  -1.04  +0.04    -9.666246    4             
iter:   4  18:18:54  -0.92  +0.02    -5.127533    21            
iter:   5  18:18:57  -1.65  -0.38    -4.937470    5             
iter:   6  18:19:00  -2.19  -0.49    -4.848184    5             
iter:   7  18:19:02  -2.09  -0.62    -4.839122    7             
iter:   8  18:19:05  -2.81  -0.92    -4.827853    3             
iter:   9  18:19:08  -3.40  -1.17    -4.831447    2             
iter:  10  18:19:11  -3.86  -1.28    -4.831805    3             
iter:  11  18:19:14  -3.56  -1.35    -4.831181    2             
iter:  12  18:19:16  -4.62  -1.77    -4.831120    2             
iter:  13  18:19:19  -4.75  -1.79    -4.831102    2             
iter:  14  18:19:22  -4.90  -2.06    -4.831354    2             
iter:  15  18:19:25  -5.99  -2.33    -4.831351    1             
iter:  16  18:19:27  -5.70  -2.36    -4.831376    2             
iter:  17  18:19:30  -5.95  -2.55    -4.831376    2             
iter:  18  18:19:33  -6.83  -2.79    -4.831377    1             
iter:  19  18:19:36  -6.94  -2.83    -4.831375    1             
iter:  20  18:19:38  -7.18  -3.01    -4.831375    1             
iter:  21  18:19:41  -7.59  -3.12    -4.831375    1             
iter:  22  18:19:44  -8.23  -3.18    -4.831375    1             
iter:  23  18:19:47  -7.50  -3.21    -4.831376    1             
iter:  24  18:19:49  -8.39  -3.52    -4.831376    1             
iter:  25  18:19:52  -7.85  -3.56    -4.831376    1             
iter:  26  18:19:55  -8.88  -3.96    -4.831376    1             
iter:  27  18:19:57  -8.89  -4.04    -4.831376    1             

Converged after 27 iterations.

Dipole moment: (0.018568, -0.008685, -0.012031) |e|*Ang

Energy contributions relative to reference atoms: (reference = -26511.662975)

Kinetic:        +11.685171
Potential:      -10.663471
External:        +0.000000
XC:              -5.853989
Entropy (-ST):   -0.000017
Local:           +0.000921
--------------------------
Free energy:     -4.831385
Extrapolated:    -4.831376

Fermi level: -2.26761

 Band  Eigenvalues  Occupancy
    0     -3.89872    2.00000
    1     -2.90232    1.99999
    2     -2.89976    1.99999
    3     -1.66278    0.00001
    4     -1.53535    0.00000
    5     -1.51277    0.00000
    6     -1.33014    0.00000
    7     -0.60207    0.00000
    8     -0.57060    0.00000
    9     -0.53856    0.00000

Gap: 1.237 eV
Transition (v -> c):
  (s=0, k=0, n=2, [0.00, 0.00, 0.00]) -> (s=0, k=0, n=3, [0.00, 0.00, 0.00])

Forces in eV/Ang:
  0 Na    0.07632   -0.06460    0.02767
  1 Na    0.01700   -0.01212    0.03930
  2 Na   -0.05632    0.05424    0.07575
  3 Na   -0.02596    0.01541   -0.10368
  4 Na    0.02014   -0.01973   -0.03175
  5 Na   -0.03137    0.02692   -0.00735

System changes: positions 

Initializing position-dependent things.

Density initialized from wave functions
           .--------------------------------------.  
          /|                                      |  
         / |                                      |  
        /  |                                      |  
       /   |                                      |  
      /    |                                      |  
     /     |                                      |  
    /      |                                      |  
   /       |                                      |  
  /        |                                      |  
 *         |           Na                         |  
 |         |                                      |  
 |         |                Na                    |  
 |         |                                      |  
 |         |            Na                        |  
 |         |                    Na                |  
 |         |                                      |  
 |         |                 Na                   |  
 |         |                                      |  
 |         |             Na                       |  
 |         .--------------------------------------.  
 |        /                                      /   
 |       /                                      /    
 |      /                                      /     
 |     /                                      /      
 |    /                                      /       
 |   /                                      /        
 |  /                                      /         
 | /                                      /          
 |/                                      /           
 *--------------------------------------*            

Positions:
   0 Na    11.577936    4.916716    9.716629    ( 0.0000,  0.0000,  0.0000)
   1 Na     9.125291    7.111246   10.798147    ( 0.0000,  0.0000,  0.0000)
   2 Na     6.597395    9.372209   11.668141    ( 0.0000,  0.0000,  0.0000)
   3 Na     7.628095    8.042457    4.917408    ( 0.0000,  0.0000,  0.0000)
   4 Na     9.664622    6.423997    7.228541    ( 0.0000,  0.0000,  0.0000)
   5 Na     6.992326    8.744605    8.269252    ( 0.0000,  0.0000,  0.0000)

Unit cell:
           periodic     x           y           z      points  spacing
  1. axis:    no    16.000000    0.000000    0.000000    64     0.2500
  2. axis:    no     0.000000   16.000000    0.000000    64     0.2500
  3. axis:    no     0.000000    0.000000   16.000000    64     0.2500

  Lengths:  16.000000  16.000000  16.000000
  Angles:   90.000000  90.000000  90.000000

Effective grid spacing dv^(1/3) = 0.2500

                     log10-error:    total        iterations:
           time      wfs    density  energy       fermi  poisson
iter:   1  18:20:02  -0.77   +inf    -5.029061    5             
iter:   2  18:20:04  -1.87  -0.66    -4.984509    3             
iter:   3  18:20:07  -1.93  -0.71    -4.852838    6             
iter:   4  18:20:10  -3.14  -1.18    -4.839000    3             
iter:   5  18:20:12  -3.79  -1.49    -4.838762    2             
iter:   6  18:20:15  -3.63  -1.54    -4.837505    3             
iter:   7  18:20:18  -4.39  -2.10    -4.837580    2             
iter:   8  18:20:20  -5.00  -2.15    -4.837579    2             
iter:   9  18:20:23  -5.17  -2.34    -4.837634    1             
iter:  10  18:20:26  -5.90  -2.44    -4.837620    2             
iter:  11  18:20:28  -5.43  -2.31    -4.837634    2             
iter:  12  18:20:31  -6.45  -3.06    -4.837634    1             
iter:  13  18:20:34  -6.94  -3.08    -4.837634    1             
iter:  14  18:20:36  -6.96  -3.15    -4.837635    1             
iter:  15  18:20:39  -7.68  -3.33    -4.837635    1             
iter:  16  18:20:42  -8.32  -3.38    -4.837635    1             
iter:  17  18:20:44  -7.87  -3.43    -4.837634    1             
iter:  18  18:20:47  -8.08  -3.56    -4.837634    1             
iter:  19  18:20:50  -8.24  -3.66    -4.837634    1             
iter:  20  18:20:52  -8.62  -3.78    -4.837634    1             
iter:  21  18:20:55  -9.01  -3.82    -4.837634    1             
iter:  22  18:20:58  -9.11  -3.87    -4.837634    1             
iter:  23  18:21:00  -9.22  -3.96    -4.837634    1             
iter:  24  18:21:03  -9.79  -4.08    -4.837634    1             

Converged after 24 iterations.

Dipole moment: (0.028844, -0.016820, -0.015830) |e|*Ang

Energy contributions relative to reference atoms: (reference = -26511.662975)

Kinetic:         +6.902098
Potential:       -6.863443
External:        +0.000000
XC:              -4.876611
Entropy (-ST):   -0.000036
Local:           +0.000339
--------------------------
Free energy:     -4.837652
Extrapolated:    -4.837634

Fermi level: -2.27736

 Band  Eigenvalues  Occupancy
    0     -3.78099    2.00000
    1     -2.87538    1.99999
    2     -2.86609    1.99998
    3     -1.71405    0.00003
    4     -1.57399    0.00000
    5     -1.55324    0.00000
    6     -1.26110    0.00000
    7     -0.63472    0.00000
    8     -0.60943    0.00000
    9     -0.53902    0.00000

Gap: 1.152 eV
Transition (v -> c):
  (s=0, k=0, n=2, [0.00, 0.00, 0.00]) -> (s=0, k=0, n=3, [0.00, 0.00, 0.00])

Forces in eV/Ang:
  0 Na   -0.04855    0.04094   -0.01840
  1 Na   -0.02145    0.01637   -0.03567
  2 Na    0.04022   -0.04020   -0.05629
  3 Na    0.01719   -0.01277    0.07469
  4 Na   -0.02339    0.02073    0.02718
  5 Na    0.03596   -0.02506    0.00848

System changes: positions 

Initializing position-dependent things.

Density initialized from wave functions
           .--------------------------------------.  
          /|                                      |  
         / |                                      |  
        /  |                                      |  
       /   |                                      |  
      /    |                                      |  
     /     |                                      |  
    /      |                                      |  
   /       |                                      |  
  /        |                                      |  
 *         |           Na                         |  
 |         |                                      |  
 |         |                Na                    |  
 |         |                                      |  
 |         |            Na                        |  
 |         |                    Na                |  
 |         |                                      |  
 |         |                Na                    |  
 |         |                                      |  
 |         |             Na                       |  
 |         .--------------------------------------.  
 |        /                                      /   
 |       /                                      /    
 |      /                                      /     
 |     /                                      /      
 |    /                                      /       
 |   /                                      /        
 |  /                                      /         
 | /                                      /          
 |/                                      /           
 *--------------------------------------*            

Positions:
   0 Na    11.539008    4.949031    9.699373    ( 0.0000,  0.0000,  0.0000)
   1 Na     9.074738    7.151531   10.736130    ( 0.0000,  0.0000,  0.0000)
   2 Na     6.643411    9.322154   11.597611    ( 0.0000,  0.0000,  0.0000)
   3 Na     7.643997    8.022941    5.004679    ( 0.0000,  0.0000,  0.0000)
   4 Na     9.612718    6.466248    7.272220    ( 0.0000,  0.0000,  0.0000)
   5 Na     7.071344    8.699639    8.287987    ( 0.0000,  0.0000,  0.0000)

Unit cell:
           periodic     x           y           z      points  spacing
  1. axis:    no    16.000000    0.000000    0.000000    64     0.2500
  2. axis:    no     0.000000   16.000000    0.000000    64     0.2500
  3. axis:    no     0.000000    0.000000   16.000000    64     0.2500

  Lengths:  16.000000  16.000000  16.000000
  Angles:   90.000000  90.000000  90.000000

Effective grid spacing dv^(1/3) = 0.2500

                     log10-error:    total        iterations:
           time      wfs    density  energy       fermi  poisson
iter:   1  18:21:07  -1.37   +inf    -4.901127    3             
iter:   2  18:21:10  -2.47  -0.95    -4.887773    2             
iter:   3  18:21:13  -2.48  -1.00    -4.849736    4             
iter:   4  18:21:15  -3.67  -1.54    -4.848512    2             
iter:   5  18:21:18  -4.29  -1.69    -4.848356    2             
iter:   6  18:21:21  -4.15  -1.78    -4.847872    2             
iter:   7  18:21:23  -4.89  -2.13    -4.847841    2             
iter:   8  18:21:26  -5.14  -2.31    -4.847873    2             
iter:   9  18:21:29  -5.73  -2.57    -4.847885    2             
iter:  10  18:21:31  -5.68  -2.63    -4.847886    1             
iter:  11  18:21:34  -6.63  -3.10    -4.847885    1             
iter:  12  18:21:37  -7.03  -3.12    -4.847885    1             
iter:  13  18:21:39  -7.29  -3.36    -4.847885    1             
iter:  14  18:21:42  -7.94  -3.58    -4.847885    1             
iter:  15  18:21:45  -8.14  -3.62    -4.847885    1             
iter:  16  18:21:47  -8.35  -3.72    -4.847885    0             
iter:  17  18:21:50  -9.32  -3.80    -4.847885    1             
iter:  18  18:21:53  -8.87  -3.87    -4.847885    1             
iter:  19  18:21:56  -9.29  -3.95    -4.847885    1             
iter:  20  18:21:58  -9.17  -4.02    -4.847885    1             

Converged after 20 iterations.

Dipole moment: (0.005881, 0.001233, -0.015496) |e|*Ang

Energy contributions relative to reference atoms: (reference = -26511.662975)

Kinetic:         +9.174207
Potential:       -8.657671
External:        +0.000000
XC:              -5.365416
Entropy (-ST):   -0.000033
Local:           +0.001011
--------------------------
Free energy:     -4.847901
Extrapolated:    -4.847885

Fermi level: -2.27823

 Band  Eigenvalues  Occupancy
    0     -3.84738    2.00000
    1     -2.89038    1.99999
    2     -2.86484    1.99998
    3     -1.71267    0.00002
    4     -1.54360    0.00000
    5     -1.50576    0.00000
    6     -1.29718    0.00000
    7     -0.61173    0.00000
    8     -0.59761    0.00000
    9     -0.54318    0.00000

Gap: 1.152 eV
Transition (v -> c):
  (s=0, k=0, n=2, [0.00, 0.00, 0.00]) -> (s=0, k=0, n=3, [0.00, 0.00, 0.00])

Forces in eV/Ang:
  0 Na   -0.03870    0.03284   -0.00882
  1 Na    0.04813   -0.04030    0.01680
  2 Na   -0.01180    0.01046    0.00415
  3 Na   -0.00610    0.00409    0.00016
  4 Na    0.03905   -0.03382    0.00580
  5 Na   -0.03061    0.02677   -0.01808

System changes: positions 

Initializing position-dependent things.

Density initialized from wave functions
           .--------------------------------------.  
          /|                                      |  
         / |                                      |  
        /  |                                      |  
       /   |                                      |  
      /    |                                      |  
     /     |                                      |  
    /      |                                      |  
   /       |                                      |  
  /        |                                      |  
 *         |           Na                         |  
 |         |                                      |  
 |         |                Na                    |  
 |         |                                      |  
 |         |            Na                        |  
 |         |                    Na                |  
 |         |                                      |  
 |         |                 Na                   |  
 |         |                                      |  
 |         |             Na                       |  
 |         .--------------------------------------.  
 |        /                                      /   
 |       /                                      /    
 |      /                                      /     
 |     /                                      /      
 |    /                                      /       
 |   /                                      /        
 |  /                                      /         
 | /                                      /          
 |/                                      /           
 *--------------------------------------*            

Positions:
   0 Na    11.481815    4.995532    9.688563    ( 0.0000,  0.0000,  0.0000)
   1 Na     9.143379    7.093383   10.707942    ( 0.0000,  0.0000,  0.0000)
   2 Na     6.584447    9.355470   11.600217    ( 0.0000,  0.0000,  0.0000)
   3 Na     7.595830    8.018554    4.992287    ( 0.0000,  0.0000,  0.0000)
   4 Na     9.650002    6.417650    7.350027    ( 0.0000,  0.0000,  0.0000)
   5 Na     7.127453    8.732567    8.258384    ( 0.0000,  0.0000,  0.0000)

Unit cell:
           periodic     x           y           z      points  spacing
  1. axis:    no    16.000000    0.000000    0.000000    64     0.2500
  2. axis:    no     0.000000   16.000000    0.000000    64     0.2500
  3. axis:    no     0.000000    0.000000   16.000000    64     0.2500

  Lengths:  16.000000  16.000000  16.000000
  Angles:   90.000000  90.000000  90.000000

Effective grid spacing dv^(1/3) = 0.2500

                     log10-error:    total        iterations:
           time      wfs    density  energy       fermi  poisson
iter:   1  18:22:03  -1.45   +inf    -4.919813    2             
iter:   2  18:22:05  -2.70  -0.93    -4.894699    2             
iter:   3  18:22:08  -2.87  -1.01    -4.835155    2             
iter:   4  18:22:11  -3.82  -1.47    -4.834949    1             
iter:   5  18:22:13  -3.95  -1.56    -4.833604    2             
iter:   6  18:22:16  -4.26  -1.88    -4.833341    2             
iter:   7  18:22:19  -4.76  -2.02    -4.833464    1             
iter:   8  18:22:21  -5.13  -2.27    -4.833555    1             
iter:   9  18:22:24  -5.63  -2.57    -4.833558    1             
iter:  10  18:22:27  -5.96  -2.77    -4.833553    1             
iter:  11  18:22:29  -7.00  -3.22    -4.833553    1             
iter:  12  18:22:32  -7.46  -3.27    -4.833552    1             
iter:  13  18:22:35  -7.32  -3.41    -4.833553    1             
iter:  14  18:22:37  -7.78  -3.46    -4.833553    1             
iter:  15  18:22:40  -8.45  -3.78    -4.833553    1             
iter:  16  18:22:43  -8.32  -3.87    -4.833553    1             
iter:  17  18:22:45  -8.90  -4.16    -4.833553    1             

Converged after 17 iterations.

Dipole moment: (0.064655, -0.056844, -0.011578) |e|*Ang

Energy contributions relative to reference atoms: (reference = -26511.662975)

Kinetic:         +9.408899
Potential:       -8.835919
External:        +0.000000
XC:              -5.407251
Entropy (-ST):   -0.000037
Local:           +0.000737
--------------------------
Free energy:     -4.833571
Extrapolated:    -4.833553

Fermi level: -2.27187

 Band  Eigenvalues  Occupancy
    0     -3.85529    2.00000
    1     -2.91577    1.99999
    2     -2.83633    1.99997
    3     -1.71441    0.00003
    4     -1.54454    0.00000
    5     -1.49855    0.00000
    6     -1.30109    0.00000
    7     -0.62271    0.00000
    8     -0.61916    0.00000
    9     -0.52273    0.00000

Gap: 1.122 eV
Transition (v -> c):
  (s=0, k=0, n=2, [0.00, 0.00, 0.00]) -> (s=0, k=0, n=3, [0.00, 0.00, 0.00])

Forces in eV/Ang:
  0 Na    0.07590   -0.06440    0.02629
  1 Na   -0.08833    0.08248    0.09016
  2 Na    0.05199   -0.04412   -0.03740
  3 Na    0.03633   -0.02810    0.02980
  4 Na   -0.04480    0.02874   -0.13480
  5 Na   -0.03108    0.02538    0.02588

System changes: positions 

Initializing position-dependent things.

Density initialized from wave functions
           .--------------------------------------.  
          /|                                      |  
         / |                                      |  
        /  |                                      |  
       /   |                                      |  
      /    |                                      |  
     /     |                                      |  
    /      |                                      |  
   /       |                                      |  
  /        |                                      |  
 *         |           Na                         |  
 |         |                                      |  
 |         |                Na                    |  
 |         |                                      |  
 |         |            Na                        |  
 |         |                    Na                |  
 |         |                                      |  
 |         |                Na                    |  
 |         |                                      |  
 |         |            Na                        |  
 |         .--------------------------------------.  
 |        /                                      /   
 |       /                                      /    
 |      /                                      /     
 |     /                                      /      
 |    /                                      /       
 |   /                                      /        
 |  /                                      /         
 | /                                      /          
 |/                                      /           
 *--------------------------------------*            

Positions:
   0 Na    11.522501    4.951997    9.737449    ( 0.0000,  0.0000,  0.0000)
   1 Na     9.098555    7.156322   10.863496    ( 0.0000,  0.0000,  0.0000)
   2 Na     6.511031    9.342748   11.479905    ( 0.0000,  0.0000,  0.0000)
   3 Na     7.510735    7.900126    5.039703    ( 0.0000,  0.0000,  0.0000)
   4 Na     9.621325    6.336494    7.240140    ( 0.0000,  0.0000,  0.0000)
   5 Na     7.308650    8.932567    8.233919    ( 0.0000,  0.0000,  0.0000)

Unit cell:
           periodic     x           y           z      points  spacing
  1. axis:    no    16.000000    0.000000    0.000000    64     0.2500
  2. axis:    no     0.000000   16.000000    0.000000    64     0.2500
  3. axis:    no     0.000000    0.000000   16.000000    64     0.2500

  Lengths:  16.000000  16.000000  16.000000
  Angles:   90.000000  90.000000  90.000000

Effective grid spacing dv^(1/3) = 0.2500

                     log10-error:    total        iterations:
           time      wfs    density  energy       fermi  poisson
iter:   1  18:22:50  -1.04   +inf    -4.911305    2             
iter:   2  18:22:52  -2.27  -0.89    -4.890258    2             
iter:   3  18:22:55  -2.80  -0.96    -4.841032    2             
iter:   4  18:22:58  -3.65  -1.38    -4.840792    2             
iter:   5  18:23:00  -3.71  -1.45    -4.840963    2             
iter:   6  18:23:03  -4.22  -1.82    -4.841243    2             
iter:   7  18:23:06  -4.40  -1.89    -4.841682    2             
iter:   8  18:23:08  -5.08  -2.17    -4.841752    1             
iter:   9  18:23:11  -5.11  -2.33    -4.841794    2             
iter:  10  18:23:14  -5.87  -2.86    -4.841799    1             
iter:  11  18:23:16  -6.69  -2.95    -4.841798    1             
iter:  12  18:23:19  -7.18  -2.98    -4.841796    1             
iter:  13  18:23:22  -6.94  -3.07    -4.841799    1             
iter:  14  18:23:24  -7.38  -3.21    -4.841799    1             
iter:  15  18:23:27  -7.13  -3.32    -4.841799    1             
iter:  16  18:23:30  -8.63  -3.54    -4.841799    1             
iter:  17  18:23:32  -8.02  -3.60    -4.841799    1             
iter:  18  18:23:35  -8.59  -3.90    -4.841799    1             
iter:  19  18:23:38  -9.03  -3.97    -4.841799    1             
iter:  20  18:23:40  -9.04  -4.03    -4.841799    1             

Converged after 20 iterations.

Dipole moment: (-0.006839, -0.024892, -0.012899) |e|*Ang

Energy contributions relative to reference atoms: (reference = -26511.662975)

Kinetic:         +8.286292
Potential:       -7.970102
External:        +0.000000
XC:              -5.158667
Entropy (-ST):   -0.000025
Local:           +0.000691
--------------------------
Free energy:     -4.841812
Extrapolated:    -4.841799

Fermi level: -2.26724

 Band  Eigenvalues  Occupancy
    0     -3.81212    2.00000
    1     -2.88091    1.99999
    2     -2.87823    1.99999
    3     -1.68078    0.00002
    4     -1.57594    0.00000
    5     -1.54746    0.00000
    6     -1.27352    0.00000
    7     -0.62694    0.00000
    8     -0.60090    0.00000
    9     -0.57787    0.00000

Gap: 1.197 eV
Transition (v -> c):
  (s=0, k=0, n=2, [0.00, 0.00, 0.00]) -> (s=0, k=0, n=3, [0.00, 0.00, 0.00])

Forces in eV/Ang:
  0 Na   -0.03275    0.02622   -0.00026
  1 Na    0.00249   -0.00593   -0.05222
  2 Na    0.02217   -0.00640    0.01428
  3 Na    0.01854   -0.00816   -0.00677
  4 Na   -0.00881    0.01428    0.03760
  5 Na   -0.00163   -0.02021    0.00744

System changes: positions 

Initializing position-dependent things.

Density initialized from wave functions
           .--------------------------------------.  
          /|                                      |  
         / |                                      |  
        /  |                                      |  
       /   |                                      |  
      /    |                                      |  
     /     |                                      |  
    /      |                                      |  
   /       |                                      |  
  /        |                                      |  
 *         |           Na                         |  
 |         |                                      |  
 |         |                Na                    |  
 |         |                                      |  
 |         |           Na                         |  
 |         |                    Na                |  
 |         |                                      |  
 |         |                 Na                   |  
 |         |                                      |  
 |         |             Na                       |  
 |         .--------------------------------------.  
 |        /                                      /   
 |       /                                      /    
 |      /                                      /     
 |     /                                      /      
 |    /                                      /       
 |   /                                      /        
 |  /                                      /         
 | /                                      /          
 |/                                      /           
 *--------------------------------------*            

Positions:
   0 Na    11.504531    4.982053    9.675932    ( 0.0000,  0.0000,  0.0000)
   1 Na     9.116926    7.113411   10.769848    ( 0.0000,  0.0000,  0.0000)
   2 Na     6.669574    9.315461   11.601520    ( 0.0000,  0.0000,  0.0000)
   3 Na     7.671289    8.056693    5.028550    ( 0.0000,  0.0000,  0.0000)
   4 Na     9.660433    6.451004    7.245543    ( 0.0000,  0.0000,  0.0000)
   5 Na     6.965659    8.690809    8.277450    ( 0.0000,  0.0000,  0.0000)

Unit cell:
           periodic     x           y           z      points  spacing
  1. axis:    no    16.000000    0.000000    0.000000    64     0.2500
  2. axis:    no     0.000000   16.000000    0.000000    64     0.2500
  3. axis:    no     0.000000    0.000000   16.000000    64     0.2500

  Lengths:  16.000000  16.000000  16.000000
  Angles:   90.000000  90.000000  90.000000

Effective grid spacing dv^(1/3) = 0.2500

                     log10-error:    total        iterations:
           time      wfs    density  energy       fermi  poisson
iter:   1  18:23:45  -0.95   +inf    -4.850321    2             
iter:   2  18:23:47  -2.15  -1.16    -4.850512    1             
iter:   3  18:23:50  -2.93  -1.19    -4.846352    1             
iter:   4  18:23:53  -3.73  -1.48    -4.847158    2             
iter:   5  18:23:56  -3.95  -1.54    -4.849326    2             
iter:   6  18:23:58  -4.43  -1.86    -4.850092    2             
iter:   7  18:24:01  -4.41  -1.98    -4.850552    2             
iter:   8  18:24:04  -5.24  -2.42    -4.850588    1             
iter:   9  18:24:06  -5.23  -2.49    -4.850623    2             
iter:  10  18:24:09  -6.44  -3.01    -4.850620    1             
iter:  11  18:24:12  -7.17  -3.11    -4.850620    1             
iter:  12  18:24:14  -7.11  -3.15    -4.850620    1             
iter:  13  18:24:17  -7.90  -3.46    -4.850620    1             
iter:  14  18:24:20  -7.78  -3.52    -4.850621    1             
iter:  15  18:24:22  -8.64  -3.65    -4.850621    1             
iter:  16  18:24:25  -8.30  -3.69    -4.850621    1             
iter:  17  18:24:28  -8.84  -3.93    -4.850621    1             
iter:  18  18:24:30  -8.91  -3.99    -4.850621    1             
iter:  19  18:24:33  -9.46  -4.13    -4.850621    1             

Converged after 19 iterations.

Dipole moment: (0.027035, -0.010173, -0.014108) |e|*Ang

Energy contributions relative to reference atoms: (reference = -26511.662975)

Kinetic:         +9.008696
Potential:       -8.549071
External:        +0.000000
XC:              -5.311142
Entropy (-ST):   -0.000023
Local:           +0.000908
--------------------------
Free energy:     -4.850632
Extrapolated:    -4.850621

Fermi level: -2.26978

 Band  Eigenvalues  Occupancy
    0     -3.83005    2.00000
    1     -2.89101    1.99999
    2     -2.88405    1.99999
    3     -1.67930    0.00001
    4     -1.56366    0.00000
    5     -1.54098    0.00000
    6     -1.28971    0.00000
    7     -0.61062    0.00000
    8     -0.60112    0.00000
    9     -0.54191    0.00000

Gap: 1.205 eV
Transition (v -> c):
  (s=0, k=0, n=2, [0.00, 0.00, 0.00]) -> (s=0, k=0, n=3, [0.00, 0.00, 0.00])

Forces in eV/Ang:
  0 Na    0.01127   -0.00924    0.00284
  1 Na   -0.01169    0.00870   -0.01521
  2 Na   -0.00462    0.00106    0.00169
  3 Na   -0.00515    0.00036   -0.01026
  4 Na   -0.01206    0.00920    0.01149
  5 Na    0.02227   -0.01003    0.00937

System changes: positions 

Initializing position-dependent things.

Density initialized from wave functions
           .--------------------------------------.  
          /|                                      |  
         / |                                      |  
        /  |                                      |  
       /   |                                      |  
      /    |                                      |  
     /     |                                      |  
    /      |                                      |  
   /       |                                      |  
  /        |                                      |  
 *         |           Na                         |  
 |         |                                      |  
 |         |                Na                    |  
 |         |                                      |  
 |         |            Na                        |  
 |         |                    Na                |  
 |         |                                      |  
 |         |                Na                    |  
 |         |                                      |  
 |         |             Na                       |  
 |         .--------------------------------------.  
 |        /                                      /   
 |       /                                      /    
 |      /                                      /     
 |     /                                      /      
 |    /                                      /       
 |   /                                      /        
 |  /                                      /         
 | /                                      /          
 |/                                      /           
 *--------------------------------------*            

Positions:
   0 Na    11.434299    5.017675    9.777303    ( 0.0000,  0.0000,  0.0000)
   1 Na     9.096225    7.149212   10.750861    ( 0.0000,  0.0000,  0.0000)
   2 Na     6.659904    9.311229   11.603259    ( 0.0000,  0.0000,  0.0000)
   3 Na     7.656510    7.845111    4.956774    ( 0.0000,  0.0000,  0.0000)
   4 Na     9.602205    6.390262    7.243137    ( 0.0000,  0.0000,  0.0000)
   5 Na     7.124389    8.904958    8.263966    ( 0.0000,  0.0000,  0.0000)

Unit cell:
           periodic     x           y           z      points  spacing
  1. axis:    no    16.000000    0.000000    0.000000    64     0.2500
  2. axis:    no     0.000000   16.000000    0.000000    64     0.2500
  3. axis:    no     0.000000    0.000000   16.000000    64     0.2500

  Lengths:  16.000000  16.000000  16.000000
  Angles:   90.000000  90.000000  90.000000

Effective grid spacing dv^(1/3) = 0.2500

                     log10-error:    total        iterations:
           time      wfs    density  energy       fermi  poisson
iter:   1  18:24:37  -1.19   +inf    -4.845871    2             
iter:   2  18:24:40  -2.41  -1.25    -4.845750    1             
iter:   3  18:24:43  -3.13  -1.28    -4.841806    1             
iter:   4  18:24:45  -4.01  -1.66    -4.841873    1             
iter:   5  18:24:48  -4.35  -1.71    -4.842445    1             
iter:   6  18:24:51  -4.68  -1.96    -4.842792    1             
iter:   7  18:24:53  -4.65  -2.08    -4.843122    1             
iter:   8  18:24:56  -5.50  -2.56    -4.843146    1             
iter:   9  18:24:59  -5.52  -2.64    -4.843168    1             
iter:  10  18:25:01  -6.55  -3.12    -4.843166    1             
iter:  11  18:25:04  -7.33  -3.37    -4.843166    1             
iter:  12  18:25:07  -7.63  -3.41    -4.843166    1             
iter:  13  18:25:09  -8.12  -3.62    -4.843166    1             
iter:  14  18:25:12  -8.49  -3.74    -4.843166    1             
iter:  15  18:25:15  -9.05  -3.82    -4.843166    1             
iter:  16  18:25:17  -8.31  -3.86    -4.843166    1             
iter:  17  18:25:20  -9.27  -4.33    -4.843166    1             

Converged after 17 iterations.

Dipole moment: (-0.009484, -0.002477, -0.014388) |e|*Ang

Energy contributions relative to reference atoms: (reference = -26511.662975)

Kinetic:         +9.039857
Potential:       -8.570456
External:        +0.000000
XC:              -5.313561
Entropy (-ST):   -0.000026
Local:           +0.001007
--------------------------
Free energy:     -4.843179
Extrapolated:    -4.843166

Fermi level: -2.27619

 Band  Eigenvalues  Occupancy
    0     -3.83081    2.00000
    1     -2.89885    1.99999
    2     -2.87516    1.99999
    3     -1.69677    0.00002
    4     -1.55657    0.00000
    5     -1.53150    0.00000
    6     -1.28936    0.00000
    7     -0.61003    0.00000
    8     -0.59133    0.00000
    9     -0.56354    0.00000

Gap: 1.178 eV
Transition (v -> c):
  (s=0, k=0, n=2, [0.00, 0.00, 0.00]) -> (s=0, k=0, n=3, [0.00, 0.00, 0.00])

Forces in eV/Ang:
  0 Na    0.03404   -0.03265   -0.01497
  1 Na   -0.01648    0.01555   -0.00616
  2 Na   -0.01667    0.02210   -0.00387
  3 Na   -0.02377    0.03312    0.03112
  4 Na    0.00585    0.00044    0.03552
  5 Na    0.01697   -0.03855   -0.04150

System changes: positions 

Initializing position-dependent things.

Density initialized from wave functions
           .--------------------------------------.  
          /|                                      |  
         / |                                      |  
        /  |                                      |  
       /   |                                      |  
      /    |                                      |  
     /     |                                      |  
    /      |                                      |  
   /       |                                      |  
  /        |                                      |  
 *         |           Na                         |  
 |         |                                      |  
 |         |                Na                    |  
 |         |                                      |  
 |         |            Na                        |  
 |         |                    Na                |  
 |         |                                      |  
 |         |                Na                    |  
 |         |                                      |  
 |         |             Na                       |  
 |         .--------------------------------------.  
 |        /                                      /   
 |       /                                      /    
 |      /                                      /     
 |     /                                      /      
 |    /                                      /       
 |   /                                      /        
 |  /                                      /         
 | /                                      /          
 |/                                      /           
 *--------------------------------------*            

Positions:
   0 Na    11.480098    4.947290    9.777513    ( 0.0000,  0.0000,  0.0000)
   1 Na     9.040973    7.211632   10.735539    ( 0.0000,  0.0000,  0.0000)
   2 Na     6.674267    9.375739   11.629795    ( 0.0000,  0.0000,  0.0000)
   3 Na     7.635219    7.853426    5.042588    ( 0.0000,  0.0000,  0.0000)
   4 Na     9.626617    6.356365    7.328880    ( 0.0000,  0.0000,  0.0000)
   5 Na     7.109721    8.877197    8.080342    ( 0.0000,  0.0000,  0.0000)

Unit cell:
           periodic     x           y           z      points  spacing
  1. axis:    no    16.000000    0.000000    0.000000    64     0.2500
  2. axis:    no     0.000000   16.000000    0.000000    64     0.2500
  3. axis:    no     0.000000    0.000000   16.000000    64     0.2500

  Lengths:  16.000000  16.000000  16.000000
  Angles:   90.000000  90.000000  90.000000

Effective grid spacing dv^(1/3) = 0.2500

                     log10-error:    total        iterations:
           time      wfs    density  energy       fermi  poisson
iter:   1  18:25:24  -1.41   +inf    -4.866303    2             
iter:   2  18:25:27  -2.61  -1.08    -4.856970    2             
iter:   3  18:25:30  -2.93  -1.14    -4.832143    2             
iter:   4  18:25:32  -4.01  -1.47    -4.832579    2             
iter:   5  18:25:35  -4.06  -1.53    -4.832542    2             
iter:   6  18:25:38  -4.30  -1.82    -4.832691    2             
iter:   7  18:25:41  -4.65  -1.99    -4.833088    2             
iter:   8  18:25:43  -5.17  -2.32    -4.833177    1             
iter:   9  18:25:46  -5.53  -2.56    -4.833179    1             
iter:  10  18:25:49  -6.46  -2.94    -4.833177    1             
iter:  11  18:25:52  -7.19  -3.18    -4.833177    1             
iter:  12  18:25:54  -7.63  -3.25    -4.833177    1             
iter:  13  18:25:57  -8.05  -3.38    -4.833177    1             
iter:  14  18:26:00  -7.86  -3.42    -4.833177    1             
iter:  15  18:26:03  -8.37  -3.56    -4.833177    1             
iter:  16  18:26:06  -8.10  -3.62    -4.833177    1             
iter:  17  18:26:08  -8.98  -3.79    -4.833177    1             
iter:  18  18:26:11  -9.08  -3.84    -4.833177    1             
iter:  19  18:26:14  -8.79  -3.95    -4.833177    1             
iter:  20  18:26:17  -9.47  -4.12    -4.833177    1             

Converged after 20 iterations.

Dipole moment: (0.013710, -0.024260, -0.055062) |e|*Ang

Energy contributions relative to reference atoms: (reference = -26511.662975)

Kinetic:         +8.988549
Potential:       -8.523577
External:        +0.000000
XC:              -5.299074
Entropy (-ST):   -0.000027
Local:           +0.000938
--------------------------
Free energy:     -4.833190
Extrapolated:    -4.833177

Fermi level: -2.27043

 Band  Eigenvalues  Occupancy
    0     -3.83123    2.00000
    1     -2.90811    1.99999
    2     -2.85944    1.99998
    3     -1.69098    0.00002
    4     -1.58052    0.00000
    5     -1.51183    0.00000
    6     -1.28942    0.00000
    7     -0.61223    0.00000
    8     -0.60156    0.00000
    9     -0.56267    0.00000

Gap: 1.168 eV
Transition (v -> c):
  (s=0, k=0, n=2, [0.00, 0.00, 0.00]) -> (s=0, k=0, n=3, [0.00, 0.00, 0.00])

Forces in eV/Ang:
  0 Na   -0.01694    0.01410    0.00318
  1 Na    0.02392   -0.02019   -0.01179
  2 Na   -0.00964    0.01242   -0.07408
  3 Na    0.00169   -0.01224   -0.09092
  4 Na    0.00878   -0.00568    0.00663
  5 Na   -0.00781    0.01169    0.16732

System changes: positions 

Initializing position-dependent things.

Density initialized from wave functions
           .--------------------------------------.  
          /|                                      |  
         / |                                      |  
        /  |                                      |  
       /   |                                      |  
      /    |                                      |  
     /     |                                      |  
    /      |                                      |  
   /       |                                      |  
  /        |                                      |  
 *         |           Na                         |  
 |         |                                      |  
 |         |                Na                    |  
 |         |                                      |  
 |         |            Na                        |  
 |         |                    Na                |  
 |         |                                      |  
 |         |                Na                    |  
 |         |                                      |  
 |         |             Na                       |  
 |         .--------------------------------------.  
 |        /                                      /   
 |       /                                      /    
 |      /                                      /     
 |     /                                      /      
 |    /                                      /       
 |   /                                      /        
 |  /                                      /         
 | /                                      /          
 |/                                      /           
 *--------------------------------------*            

Positions:
   0 Na    11.499044    5.049738    9.675661    ( 0.0000,  0.0000,  0.0000)
   1 Na     9.166908    7.043724   10.813158    ( 0.0000,  0.0000,  0.0000)
   2 Na     6.546542    9.199876   11.678674    ( 0.0000,  0.0000,  0.0000)
   3 Na     7.602965    8.056826    5.034965    ( 0.0000,  0.0000,  0.0000)
   4 Na     9.569760    6.505035    7.128322    ( 0.0000,  0.0000,  0.0000)
   5 Na     7.212377    8.750911    8.267212    ( 0.0000,  0.0000,  0.0000)

Unit cell:
           periodic     x           y           z      points  spacing
  1. axis:    no    16.000000    0.000000    0.000000    64     0.2500
  2. axis:    no     0.000000   16.000000    0.000000    64     0.2500
  3. axis:    no     0.000000    0.000000   16.000000    64     0.2500

  Lengths:  16.000000  16.000000  16.000000
  Angles:   90.000000  90.000000  90.000000

Effective grid spacing dv^(1/3) = 0.2500

                     log10-error:    total        iterations:
           time      wfs    density  energy       fermi  poisson
iter:   1  18:26:21  -0.91   +inf    -4.837690    2             
iter:   2  18:26:24  -2.08  -0.97    -4.836303    2             
iter:   3  18:26:27  -2.74  -1.00    -4.820443    2             
iter:   4  18:26:30  -3.53  -1.35    -4.820936    2             
iter:   5  18:26:33  -3.92  -1.43    -4.822567    2             
iter:   6  18:26:35  -4.18  -1.65    -4.824193    2             
iter:   7  18:26:38  -4.28  -1.83    -4.824944    1             
iter:   8  18:26:41  -5.09  -2.31    -4.825016    1             
iter:   9  18:26:44  -5.10  -2.38    -4.825065    1             
iter:  10  18:26:47  -6.00  -2.66    -4.825047    1             
iter:  11  18:26:49  -6.71  -3.11    -4.825048    1             
iter:  12  18:26:52  -7.33  -3.21    -4.825048    1             
iter:  13  18:26:55  -7.95  -3.33    -4.825049    1             
iter:  14  18:26:58  -7.58  -3.39    -4.825049    1             
iter:  15  18:27:01  -8.40  -3.68    -4.825049    1             
iter:  16  18:27:03  -8.14  -3.75    -4.825049    1             
iter:  17  18:27:06  -9.01  -4.16    -4.825049    1             

Converged after 17 iterations.

Dipole moment: (-0.007216, -0.007340, -0.107854) |e|*Ang

Energy contributions relative to reference atoms: (reference = -26511.662975)

Kinetic:         +9.229246
Potential:       -8.707734
External:        +0.000000
XC:              -5.347497
Entropy (-ST):   -0.000036
Local:           +0.000954
--------------------------
Free energy:     -4.825067
Extrapolated:    -4.825049

Fermi level: -2.26853

 Band  Eigenvalues  Occupancy
    0     -3.84221    2.00000
    1     -2.93713    2.00000
    2     -2.83165    1.99997
    3     -1.70743    0.00003
    4     -1.56327    0.00000
    5     -1.51306    0.00000
    6     -1.29600    0.00000
    7     -0.59677    0.00000
    8     -0.59346    0.00000
    9     -0.57336    0.00000

Gap: 1.124 eV
Transition (v -> c):
  (s=0, k=0, n=2, [0.00, 0.00, 0.00]) -> (s=0, k=0, n=3, [0.00, 0.00, 0.00])

Forces in eV/Ang:
  0 Na    0.03001   -0.02938   -0.05877
  1 Na   -0.08426    0.06846   -0.00696
  2 Na    0.04413   -0.02835   -0.07230
  3 Na   -0.03666    0.02819   -0.08662
  4 Na    0.10346   -0.08235    0.09948
  5 Na   -0.05677    0.04347    0.12526

System changes: positions 

Initializing position-dependent things.

Density initialized from wave functions
           .--------------------------------------.  
          /|                                      |  
         / |                                      |  
        /  |                                      |  
       /   |                                      |  
      /    |                                      |  
     /     |                                      |  
    /      |                                      |  
   /       |                                      |  
  /        |                                      |  
 *         |           Na                         |  
 |         |                                      |  
 |         |                Na                    |  
 |         |                                      |  
 |         |            Na                        |  
 |         |                    Na                |  
 |         |                                      |  
 |         |                 Na                   |  
 |         |                                      |  
 |         |            Na                        |  
 |         .--------------------------------------.  
 |        /                                      /   
 |       /                                      /    
 |      /                                      /     
 |     /                                      /      
 |    /                                      /       
 |   /                                      /        
 |  /                                      /         
 | /                                      /          
 |/                                      /           
 *--------------------------------------*            

Positions:
   0 Na    11.546068    5.082115    9.521608    ( 0.0000,  0.0000,  0.0000)
   1 Na     9.070356    7.078489   10.852935    ( 0.0000,  0.0000,  0.0000)
   2 Na     6.561712    8.992269   11.699490    ( 0.0000,  0.0000,  0.0000)
   3 Na     7.516197    8.197065    4.940482    ( 0.0000,  0.0000,  0.0000)
   4 Na     9.703481    6.439010    7.166621    ( 0.0000,  0.0000,  0.0000)
   5 Na     7.217438    8.808464    8.417775    ( 0.0000,  0.0000,  0.0000)

Unit cell:
           periodic     x           y           z      points  spacing
  1. axis:    no    16.000000    0.000000    0.000000    64     0.2500
  2. axis:    no     0.000000   16.000000    0.000000    64     0.2500
  3. axis:    no     0.000000    0.000000   16.000000    64     0.2500

  Lengths:  16.000000  16.000000  16.000000
  Angles:   90.000000  90.000000  90.000000

Effective grid spacing dv^(1/3) = 0.2500

                     log10-error:    total        iterations:
           time      wfs    density  energy       fermi  poisson
iter:   1  18:27:11  -0.98   +inf    -5.042818    2             
iter:   2  18:27:14  -2.20  -0.69    -4.976187    2             
iter:   3  18:27:16  -2.41  -0.78    -4.825157    2             
iter:   4  18:27:19  -3.25  -1.26    -4.822138    2             
iter:   5  18:27:22  -3.36  -1.32    -4.818686    2             
iter:   6  18:27:25  -3.97  -1.71    -4.818481    2             
iter:   7  18:27:28  -4.34  -1.77    -4.818984    1             
iter:   8  18:27:30  -4.72  -1.94    -4.819178    2             
iter:   9  18:27:33  -5.51  -2.33    -4.819156    1             
iter:  10  18:27:36  -5.52  -2.55    -4.819186    1             
iter:  11  18:27:39  -6.28  -2.88    -4.819186    1             
iter:  12  18:27:42  -6.97  -2.99    -4.819186    1             
iter:  13  18:27:44  -6.82  -3.03    -4.819184    1             
iter:  14  18:27:47  -7.59  -3.22    -4.819183    1             
iter:  15  18:27:50  -8.41  -3.32    -4.819183    1             
iter:  16  18:27:53  -7.80  -3.35    -4.819183    1             
iter:  17  18:27:55  -8.71  -3.50    -4.819183    1             
iter:  18  18:27:58  -7.47  -3.53    -4.819184    1             
iter:  19  18:28:01  -8.45  -3.99    -4.819184    1             
iter:  20  18:28:04  -9.39  -4.09    -4.819184    1             

Converged after 20 iterations.

Dipole moment: (-0.027460, 0.008338, 0.041463) |e|*Ang

Energy contributions relative to reference atoms: (reference = -26511.662975)

Kinetic:         +8.670575
Potential:       -8.266486
External:        +0.000000
XC:              -5.224284
Entropy (-ST):   -0.000036
Local:           +0.001029
--------------------------
Free energy:     -4.819202
Extrapolated:    -4.819184

Fermi level: -2.27424

 Band  Eigenvalues  Occupancy
    0     -3.82601    2.00000
    1     -2.92364    2.00000
    2     -2.84094    1.99998
    3     -1.71153    0.00003
    4     -1.58585    0.00000
    5     -1.51263    0.00000
    6     -1.28562    0.00000
    7     -0.62422    0.00000
    8     -0.58727    0.00000
    9     -0.55961    0.00000

Gap: 1.129 eV
Transition (v -> c):
  (s=0, k=0, n=2, [0.00, 0.00, 0.00]) -> (s=0, k=0, n=3, [0.00, 0.00, 0.00])

Forces in eV/Ang:
  0 Na    0.02832   -0.02272    0.05264
  1 Na    0.08888   -0.07415   -0.05656
  2 Na   -0.05992    0.05228    0.04706
  3 Na    0.04314   -0.02068    0.13050
  4 Na   -0.09688    0.08291   -0.04316
  5 Na   -0.00351   -0.01776   -0.13108

System changes: positions 

Initializing position-dependent things.

Density initialized from wave functions
           .--------------------------------------.  
          /|                                      |  
         / |                                      |  
        /  |                                      |  
       /   |                                      |  
      /    |                                      |  
     /     |                                      |  
    /      |                                      |  
   /       |                                      |  
  /        |                                      |  
 *         |          Na                          |  
 |         |                                      |  
 |         |                Na                    |  
 |         |                                      |  
 |         |            Na                        |  
 |         |                     Na               |  
 |         |                                      |  
 |         |                 Na                   |  
 |         |             Na                       |  
 |         |                                      |  
 |         .--------------------------------------.  
 |        /                                      /   
 |       /                                      /    
 |      /                                      /     
 |     /                                      /      
 |    /                                      /       
 |   /                                      /        
 |  /                                      /         
 | /                                      /          
 |/                                      /           
 *--------------------------------------*            

Positions:
   0 Na    11.671633    5.014645    9.508013    ( 0.0000,  0.0000,  0.0000)
   1 Na     9.140211    6.992679   10.725860    ( 0.0000,  0.0000,  0.0000)
   2 Na     6.483263    8.967784   11.736827    ( 0.0000,  0.0000,  0.0000)
   3 Na     7.547940    8.242568    5.097726    ( 0.0000,  0.0000,  0.0000)
   4 Na     9.646610    6.521446    7.177842    ( 0.0000,  0.0000,  0.0000)
   5 Na     7.135423    8.853131    8.351771    ( 0.0000,  0.0000,  0.0000)

Unit cell:
           periodic     x           y           z      points  spacing
  1. axis:    no    16.000000    0.000000    0.000000    64     0.2500
  2. axis:    no     0.000000   16.000000    0.000000    64     0.2500
  3. axis:    no     0.000000    0.000000   16.000000    64     0.2500

  Lengths:  16.000000  16.000000  16.000000
  Angles:   90.000000  90.000000  90.000000

Effective grid spacing dv^(1/3) = 0.2500

                     log10-error:    total        iterations:
           time      wfs    density  energy       fermi  poisson
iter:   1  18:28:08  -1.09   +inf    -4.948559    3             
iter:   2  18:28:11  -2.25  -0.84    -4.921264    2             
iter:   3  18:28:14  -2.58  -0.91    -4.848028    2             
iter:   4  18:28:17  -3.54  -1.35    -4.847813    1             
iter:   5  18:28:20  -3.69  -1.43    -4.845793    1             
iter:   6  18:28:22  -4.01  -1.77    -4.845574    2             
iter:   7  18:28:25  -4.43  -1.89    -4.845834    1             
iter:   8  18:28:28  -4.92  -2.14    -4.845986    1             
iter:   9  18:28:31  -5.28  -2.43    -4.846000    1             
iter:  10  18:28:34  -5.86  -2.69    -4.845994    1             
iter:  11  18:28:36  -6.68  -2.88    -4.845993    1             
iter:  12  18:28:39  -6.99  -2.94    -4.845990    1             
iter:  13  18:28:42  -7.10  -3.07    -4.845990    1             
iter:  14  18:28:45  -7.55  -3.13    -4.845989    1             
iter:  15  18:28:48  -7.44  -3.21    -4.845989    1             
iter:  16  18:28:50  -7.63  -3.26    -4.845990    1             
iter:  17  18:28:53  -7.18  -3.37    -4.845991    1             
iter:  18  18:28:56  -8.31  -3.98    -4.845991    1             
iter:  19  18:28:59  -8.99  -4.23    -4.845991    1             

Converged after 19 iterations.

Dipole moment: (0.029087, -0.032769, -0.018460) |e|*Ang

Energy contributions relative to reference atoms: (reference = -26511.662975)

Kinetic:         +8.436347
Potential:       -8.081842
External:        +0.000000
XC:              -5.201333
Entropy (-ST):   -0.000030
Local:           +0.000852
--------------------------
Free energy:     -4.846006
Extrapolated:    -4.845991

Fermi level: -2.27323

 Band  Eigenvalues  Occupancy
    0     -3.82205    2.00000
    1     -2.88979    1.99999
    2     -2.86597    1.99999
    3     -1.69998    0.00002
    4     -1.55739    0.00000
    5     -1.53852    0.00000
    6     -1.28109    0.00000
    7     -0.62243    0.00000
    8     -0.61633    0.00000
    9     -0.55633    0.00000

Gap: 1.166 eV
Transition (v -> c):
  (s=0, k=0, n=2, [0.00, 0.00, 0.00]) -> (s=0, k=0, n=3, [0.00, 0.00, 0.00])

Forces in eV/Ang:
  0 Na   -0.02861    0.01853   -0.00804
  1 Na   -0.01605    0.01057   -0.00093
  2 Na    0.03635   -0.01522   -0.03492
  3 Na    0.01422   -0.00874   -0.02587
  4 Na    0.00352    0.00479    0.01295
  5 Na   -0.00934   -0.00970    0.05671

System changes: positions 

Initializing position-dependent things.

Density initialized from wave functions
           .--------------------------------------.  
          /|                                      |  
         / |                                      |  
        /  |                                      |  
       /   |                                      |  
      /    |                                      |  
     /     |                                      |  
    /      |                                      |  
   /       |                                      |  
  /        |                                      |  
 *         |           Na                         |  
 |         |                                      |  
 |         |                Na                    |  
 |         |                                      |  
 |         |            Na                        |  
 |         |                    Na                |  
 |         |                                      |  
 |         |                 Na                   |  
 |         |                                      |  
 |         |             Na                       |  
 |         .--------------------------------------.  
 |        /                                      /   
 |       /                                      /    
 |      /                                      /     
 |     /                                      /      
 |    /                                      /       
 |   /                                      /        
 |  /                                      /         
 | /                                      /          
 |/                                      /           
 *--------------------------------------*            

Positions:
   0 Na    11.542971    4.999389    9.639036    ( 0.0000,  0.0000,  0.0000)
   1 Na     9.117092    7.084251   10.772124    ( 0.0000,  0.0000,  0.0000)
   2 Na     6.586844    9.206024   11.618566    ( 0.0000,  0.0000,  0.0000)
   3 Na     7.601679    8.074534    5.028245    ( 0.0000,  0.0000,  0.0000)
   4 Na     9.638638    6.458348    7.227990    ( 0.0000,  0.0000,  0.0000)
   5 Na     7.109552    8.783969    8.311557    ( 0.0000,  0.0000,  0.0000)

Unit cell:
           periodic     x           y           z      points  spacing
  1. axis:    no    16.000000    0.000000    0.000000    64     0.2500
  2. axis:    no     0.000000   16.000000    0.000000    64     0.2500
  3. axis:    no     0.000000    0.000000   16.000000    64     0.2500

  Lengths:  16.000000  16.000000  16.000000
  Angles:   90.000000  90.000000  90.000000

Effective grid spacing dv^(1/3) = 0.2500

                     log10-error:    total        iterations:
           time      wfs    density  energy       fermi  poisson
iter:   1  18:29:03  -1.11   +inf    -4.856698    2             
iter:   2  18:29:06  -2.28  -1.16    -4.856432    2             
iter:   3  18:29:09  -3.02  -1.19    -4.850121    2             
iter:   4  18:29:12  -3.86  -1.54    -4.850163    2             
iter:   5  18:29:15  -4.23  -1.60    -4.850579    2             
iter:   6  18:29:17  -4.73  -1.92    -4.850784    1             
iter:   7  18:29:20  -4.79  -2.06    -4.851114    2             
iter:   8  18:29:23  -5.45  -2.40    -4.851183    1             
iter:   9  18:29:26  -5.49  -2.56    -4.851205    2             
iter:  10  18:29:29  -6.42  -3.01    -4.851205    1             
iter:  11  18:29:31  -7.21  -3.14    -4.851205    1             
iter:  12  18:29:34  -7.54  -3.19    -4.851205    1             
iter:  13  18:29:37  -7.87  -3.33    -4.851205    1             
iter:  14  18:29:40  -7.57  -3.40    -4.851205    1             
iter:  15  18:29:42  -7.81  -3.52    -4.851205    1             
iter:  16  18:29:45  -8.68  -3.71    -4.851205    1             
iter:  17  18:29:48  -8.36  -3.74    -4.851205    1             
iter:  18  18:29:51  -9.02  -4.10    -4.851205    1             

Converged after 18 iterations.

Dipole moment: (0.016340, -0.017211, -0.011725) |e|*Ang

Energy contributions relative to reference atoms: (reference = -26511.662975)

Kinetic:         +9.004152
Potential:       -8.538859
External:        +0.000000
XC:              -5.317600
Entropy (-ST):   -0.000026
Local:           +0.001114
--------------------------
Free energy:     -4.851218
Extrapolated:    -4.851205

Fermi level: -2.27252

 Band  Eigenvalues  Occupancy
    0     -3.83394    2.00000
    1     -2.88604    1.99999
    2     -2.88224    1.99999
    3     -1.69034    0.00002
    4     -1.55471    0.00000
    5     -1.53411    0.00000
    6     -1.29091    0.00000
    7     -0.60809    0.00000
    8     -0.60390    0.00000
    9     -0.54737    0.00000

Gap: 1.192 eV
Transition (v -> c):
  (s=0, k=0, n=2, [0.00, 0.00, 0.00]) -> (s=0, k=0, n=3, [0.00, 0.00, 0.00])

Forces in eV/Ang:
  0 Na    0.00161   -0.00279   -0.00048
  1 Na   -0.00402    0.00274   -0.00840
  2 Na    0.00318    0.00179    0.01027
  3 Na    0.00542   -0.00192    0.00426
  4 Na   -0.00389    0.00524    0.00573
  5 Na   -0.00231   -0.00513   -0.01133

System changes: positions 

Initializing position-dependent things.

Density initialized from wave functions
           .--------------------------------------.  
          /|                                      |  
         / |                                      |  
        /  |                                      |  
       /   |                                      |  
      /    |                                      |  
     /     |                                      |  
    /      |                                      |  
   /       |                                      |  
  /        |                                      |  
 *         |                                      |  
 |         |          Na                          |  
 |         |                                      |  
 |         |       Na      Na                     |  
 |         |                Na                    |  
 |         |                                      |  
 |         |                                      |  
 |         |             Na   Na                  |  
 |         |                                      |  
 |         |                                      |  
 |         .--------------------------------------.  
 |        /                                      /   
 |       /                                      /    
 |      /                                      /     
 |     /                                      /      
 |    /                                      /       
 |   /                                      /        
 |  /                                      /         
 | /                                      /          
 |/                                      /           
 *--------------------------------------*            

Positions:
   0 Na     8.210231    9.489933    8.656516    ( 0.0000,  0.0000,  0.0000)
   1 Na     6.417931    8.101846   10.968460    ( 0.0000,  0.0000,  0.0000)
   2 Na     5.009862    9.947279    8.321395    ( 0.0000,  0.0000,  0.0000)
   3 Na     7.211492    9.790525    5.577356    ( 0.0000,  0.0000,  0.0000)
   4 Na     9.992557    7.848605    6.505352    ( 0.0000,  0.0000,  0.0000)
   5 Na     9.477264    6.754058    9.822530    ( 0.0000,  0.0000,  0.0000)

Unit cell:
           periodic     x           y           z      points  spacing
  1. axis:    no    16.000000    0.000000    0.000000    64     0.2500
  2. axis:    no     0.000000   16.000000    0.000000    64     0.2500
[...]
 |         |          Na                          |  
 |         |                                      |  
 |         |       Na      NNa                    |  
 |         |                                      |  
 |         |                                      |  
 |         |                                      |  
 |         |             Na   Na                  |  
 |         |                                      |  
 |         |                                      |  
 |         .--------------------------------------.  
 |        /                                      /   
 |       /                                      /    
 |      /                                      /     
 |     /                                      /      
 |    /                                      /       
 |   /                                      /        
 |  /                                      /         
 | /                                      /          
 |/                                      /           
 *--------------------------------------*            

Positions:
   0 Na     8.266152    9.599312    8.690649    ( 0.0000,  0.0000,  0.0000)
   1 Na     6.390208    8.048711   11.006962    ( 0.0000,  0.0000,  0.0000)
   2 Na     4.942385    9.967852    8.318205    ( 0.0000,  0.0000,  0.0000)
   3 Na     7.190409    9.811599    5.513967    ( 0.0000,  0.0000,  0.0000)
   4 Na    10.029538    7.792708    6.473229    ( 0.0000,  0.0000,  0.0000)
   5 Na     9.499667    6.709740    9.847569    ( 0.0000,  0.0000,  0.0000)

Unit cell:
           periodic     x           y           z      points  spacing
  1. axis:    no    16.000000    0.000000    0.000000    64     0.2500
  2. axis:    no     0.000000   16.000000    0.000000    64     0.2500
  3. axis:    no     0.000000    0.000000   16.000000    64     0.2500

  Lengths:  16.000000  16.000000  16.000000
  Angles:   90.000000  90.000000  90.000000

Effective grid spacing dv^(1/3) = 0.2500

                     log10-error:    total        iterations:
           time      wfs    density  energy       fermi  poisson
iter:   1  18:32:09  -1.35   +inf    -4.913034    4             
iter:   2  18:32:11  -2.39  -1.08    -4.907978    2             
iter:   3  18:32:14  -2.59  -1.13    -4.888775    4             
iter:   4  18:32:17  -3.77  -1.58    -4.887422    2             
iter:   5  18:32:19  -4.39  -1.73    -4.886955    2             
iter:   6  18:32:22  -3.83  -1.92    -4.887584    2             
iter:   7  18:32:25  -4.49  -1.83    -4.886737    2             
iter:   8  18:32:27  -5.34  -2.27    -4.886744    1             
iter:   9  18:32:30  -5.31  -2.31    -4.886692    2             
iter:  10  18:32:32  -5.63  -2.68    -4.886691    2             
iter:  11  18:32:35  -6.56  -2.94    -4.886691    2             
iter:  12  18:32:38  -6.67  -2.95    -4.886693    1             
iter:  13  18:32:40  -6.53  -3.29    -4.886695    2             
iter:  14  18:32:43  -7.00  -3.26    -4.886694    1             
iter:  15  18:32:45  -7.89  -3.85    -4.886694    1             
iter:  16  18:32:48  -8.44  -3.89    -4.886694    1             
iter:  17  18:32:51  -8.29  -4.01    -4.886694    1             

Converged after 17 iterations.

Dipole moment: (-0.070701, -0.102091, -0.050789) |e|*Ang

Energy contributions relative to reference atoms: (reference = -26511.662975)

Kinetic:         +8.886663
Potential:       -8.303378
External:        +0.000000
XC:              -5.470638
Entropy (-ST):   -0.000058
Local:           +0.000688
--------------------------
Free energy:     -4.886723
Extrapolated:    -4.886694

Fermi level: -2.24635

 Band  Eigenvalues  Occupancy
    0     -3.93552    2.00000
    1     -2.81423    1.99998
    2     -2.81136    1.99998
    3     -1.71101    0.00004
    4     -1.55479    0.00000
    5     -1.53586    0.00000
    6     -1.22833    0.00000
    7     -0.70001    0.00000
    8     -0.68264    0.00000
    9     -0.31539    0.00000

Gap: 1.100 eV
Transition (v -> c):
  (s=0, k=0, n=2, [0.00, 0.00, 0.00]) -> (s=0, k=0, n=3, [0.00, 0.00, 0.00])

Forces in eV/Ang:
  0 Na   -0.00452    0.00674   -0.00357
  1 Na   -0.00611    0.00266   -0.00293
  2 Na    0.00752   -0.00231    0.00097
  3 Na    0.00333   -0.00278    0.00663
  4 Na   -0.00533    0.00380   -0.00449
  5 Na    0.00530   -0.00796    0.00355

System changes: positions 

Initializing position-dependent things.

Density initialized from wave functions
           .--------------------------------------.  
          /|                                      |  
         / |                                      |  
        /  |                                      |  
       /   |                                      |  
      /    |                                      |  
     /     |                                      |  
    /      |                                      |  
   /       |                                      |  
  /        |                                      |  
 *         |           Na                         |  
 |         |                                      |  
 |         |                Na                    |  
 |         |                                      |  
 |         |            Na                        |  
 |         |                    Na                |  
 |         |                                      |  
 |         |                 Na                   |  
 |         |                                      |  
 |         |             Na                       |  
 |         .--------------------------------------.  
 |        /                                      /   
 |       /                                      /    
 |      /                                      /     
 |     /                                      /      
 |    /                                      /       
 |   /                                      /        
 |  /                                      /         
 | /                                      /          
 |/                                      /           
 *--------------------------------------*            

Positions:
   0 Na    11.542971    4.999389    9.639036    ( 0.0000,  0.0000,  0.0000)
   1 Na     9.117092    7.084251   10.772124    ( 0.0000,  0.0000,  0.0000)
   2 Na     6.586844    9.206024   11.618566    ( 0.0000,  0.0000,  0.0000)
   3 Na     7.601679    8.074534    5.028245    ( 0.0000,  0.0000,  0.0000)
   4 Na     9.638638    6.458348    7.227990    ( 0.0000,  0.0000,  0.0000)
   5 Na     7.109552    8.783969    8.311557    ( 0.0000,  0.0000,  0.0000)

Unit cell:
           periodic     x           y           z      points  spacing
  1. axis:    no    16.000000    0.000000    0.000000    64     0.2500
  2. axis:    no     0.000000   16.000000    0.000000    64     0.2500
  3. axis:    no     0.000000    0.000000   16.000000    64     0.2500

  Lengths:  16.000000  16.000000  16.000000
  Angles:   90.000000  90.000000  90.000000

Effective grid spacing dv^(1/3) = 0.2500

                     log10-error:    total        iterations:
           time      wfs    density  energy       fermi  poisson
iter:   1  18:32:55  +0.50   +inf    -9.893270    29            
iter:   2  18:32:57  -0.36  +0.02    -9.341173    4             
iter:   3  18:33:00  -1.11  +0.01    -8.525939    5             
iter:   4  18:33:03  -0.86  -0.02    -4.958322    21            
iter:   5  18:33:05  -1.93  -0.51    -4.940797    3             
iter:   6  18:33:08  -2.11  -0.52    -4.823418    6             
iter:   7  18:33:11  -2.12  -0.74    -4.918890    7             
iter:   8  18:33:13  -2.97  -0.78    -4.831415    5             
iter:   9  18:33:16  -2.79  -0.90    -4.844110    2             
iter:  10  18:33:18  -3.42  -1.24    -4.850524    3             
iter:  11  18:33:21  -3.96  -1.32    -4.851385    2             
iter:  12  18:33:24  -3.76  -1.47    -4.850943    3             
iter:  13  18:33:26  -4.82  -1.88    -4.850917    1             
iter:  14  18:33:29  -4.69  -1.91    -4.851040    2             
iter:  15  18:33:31  -4.90  -2.15    -4.851247    2             
iter:  16  18:33:34  -5.90  -2.30    -4.851200    2             
iter:  17  18:33:37  -6.79  -2.44    -4.851193    1             
iter:  18  18:33:39  -6.69  -2.45    -4.851179    1             
iter:  19  18:33:42  -5.71  -2.50    -4.851205    1             
iter:  20  18:33:44  -6.85  -2.85    -4.851204    1             
iter:  21  18:33:47  -7.53  -2.89    -4.851203    1             
iter:  22  18:33:50  -6.84  -2.94    -4.851205    1             
iter:  23  18:33:52  -7.20  -3.19    -4.851205    1             
iter:  24  18:33:55  -8.24  -3.40    -4.851205    1             
iter:  25  18:33:58  -7.32  -3.43    -4.851205    1             
iter:  26  18:34:00  -8.09  -3.63    -4.851205    1             
iter:  27  18:34:03  -8.87  -4.05    -4.851205    1             

Converged after 27 iterations.

Dipole moment: (0.016302, -0.017080, -0.011681) |e|*Ang

Energy contributions relative to reference atoms: (reference = -26511.662975)

Kinetic:         +9.002648
Potential:       -8.537540
External:        +0.000000
XC:              -5.317318
Entropy (-ST):   -0.000025
Local:           +0.001016
--------------------------
Free energy:     -4.851218
Extrapolated:    -4.851205

Fermi level: -2.27257

 Band  Eigenvalues  Occupancy
    0     -3.83406    2.00000
    1     -2.88609    1.99999
    2     -2.88230    1.99999
    3     -1.69039    0.00002
    4     -1.55476    0.00000
    5     -1.53417    0.00000
    6     -1.29098    0.00000
    7     -0.60631    0.00000
    8     -0.59822    0.00000
    9     -0.54113    0.00000

Gap: 1.192 eV
Transition (v -> c):
  (s=0, k=0, n=2, [0.00, 0.00, 0.00]) -> (s=0, k=0, n=3, [0.00, 0.00, 0.00])
System changes: positions 

Initializing position-dependent things.

Density initialized from wave functions
           .--------------------------------------.  
          /|                                      |  
         / |                                      |  
        /  |                                      |  
       /   |                                      |  
      /    |                                      |  
     /     |                                      |  
    /      |                                      |  
   /       |                                      |  
  /        |                                      |  
 *         |                                      |  
 |         |          Na                          |  
 |         |                                      |  
 |         |       Na      NNa                    |  
 |         |                                      |  
 |         |                                      |  
 |         |                                      |  
 |         |             Na   Na                  |  
 |         |                                      |  
 |         |                                      |  
 |         .--------------------------------------.  
 |        /                                      /   
 |       /                                      /    
 |      /                                      /     
 |     /                                      /      
 |    /                                      /       
 |   /                                      /        
 |  /                                      /         
 | /                                      /          
 |/                                      /           
 *--------------------------------------*            

Positions:
   0 Na     8.266152    9.599312    8.690649    ( 0.0000,  0.0000,  0.0000)
   1 Na     6.390208    8.048711   11.006962    ( 0.0000,  0.0000,  0.0000)
   2 Na     4.942385    9.967852    8.318205    ( 0.0000,  0.0000,  0.0000)
   3 Na     7.190409    9.811599    5.513967    ( 0.0000,  0.0000,  0.0000)
   4 Na    10.029538    7.792708    6.473229    ( 0.0000,  0.0000,  0.0000)
   5 Na     9.499667    6.709740    9.847569    ( 0.0000,  0.0000,  0.0000)

Unit cell:
           periodic     x           y           z      points  spacing
  1. axis:    no    16.000000    0.000000    0.000000    64     0.2500
  2. axis:    no     0.000000   16.000000    0.000000    64     0.2500
  3. axis:    no     0.000000    0.000000   16.000000    64     0.2500

  Lengths:  16.000000  16.000000  16.000000
  Angles:   90.000000  90.000000  90.000000

Effective grid spacing dv^(1/3) = 0.2500

                     log10-error:    total        iterations:
           time      wfs    density  energy       fermi  poisson
iter:   1  18:34:06  +0.32   +inf    -6.854568    23            
iter:   2  18:34:09  -0.55  -0.10    -6.730782    3             
iter:   3  18:34:11  -1.27  -0.12    -5.672587    6             
iter:   4  18:34:14  -1.39  -0.27    -5.094515    10            
iter:   5  18:34:17  -2.41  -0.49    -4.952426    3             
iter:   6  18:34:19  -2.36  -0.58    -4.867728    5             
iter:   7  18:34:22  -2.63  -0.89    -4.898119    4             
iter:   8  18:34:24  -2.78  -0.99    -4.884124    3             
iter:   9  18:34:27  -3.63  -1.38    -4.884638    2             
iter:  10  18:34:30  -3.78  -1.45    -4.886441    3             
iter:  11  18:34:32  -4.25  -1.75    -4.886497    2             
iter:  12  18:34:35  -4.99  -1.91    -4.886418    2             
iter:  13  18:34:37  -5.43  -1.95    -4.886384    2             
iter:  14  18:34:40  -5.07  -2.02    -4.886662    2             
iter:  15  18:34:43  -5.54  -2.18    -4.886662    2             
iter:  16  18:34:45  -5.74  -2.29    -4.886664    1             
iter:  17  18:34:48  -6.41  -2.47    -4.886664    2             
iter:  18  18:34:50  -5.88  -2.54    -4.886691    2             
iter:  19  18:34:53  -7.00  -2.95    -4.886690    1             
iter:  20  18:34:56  -7.64  -2.99    -4.886691    1             
iter:  21  18:34:58  -7.04  -3.03    -4.886693    1             
iter:  22  18:35:01  -7.93  -3.24    -4.886693    1             
iter:  23  18:35:04  -7.27  -3.28    -4.886694    1             
iter:  24  18:35:06  -8.22  -3.68    -4.886694    1             
iter:  25  18:35:09  -8.93  -3.77    -4.886694    1             
iter:  26  18:35:11  -9.18  -3.89    -4.886694    1             
iter:  27  18:35:14  -9.32  -3.96    -4.886694    1             
iter:  28  18:35:17  -9.14  -4.08    -4.886693    1             

Converged after 28 iterations.

Dipole moment: (-0.070622, -0.102138, -0.050738) |e|*Ang

Energy contributions relative to reference atoms: (reference = -26511.662975)

Kinetic:         +8.882496
Potential:       -8.299288
External:        +0.000000
XC:              -5.470137
Entropy (-ST):   -0.000058
Local:           +0.000265
--------------------------
Free energy:     -4.886723
Extrapolated:    -4.886693

Fermi level: -2.24630

 Band  Eigenvalues  Occupancy
    0     -3.93541    2.00000
    1     -2.81418    1.99998
    2     -2.81131    1.99998
    3     -1.71096    0.00004
    4     -1.55475    0.00000
    5     -1.53586    0.00000
    6     -1.22824    0.00000
    7     -0.69998    0.00000
    8     -0.68262    0.00000
    9     -0.32050    0.00000

Gap: 1.100 eV
Transition (v -> c):
  (s=0, k=0, n=2, [0.00, 0.00, 0.00]) -> (s=0, k=0, n=3, [0.00, 0.00, 0.00])
Timing:                                      incl.     excl.
-------------------------------------------------------------------
Density initialized from wave functions:     4.502     4.502   0.4% |
 Symmetrize density:                         0.000     0.000   0.0% |
Forces:                                     13.334    13.334   1.2% |
Hamiltonian:                                41.074     0.105   0.0% |
 Atomic:                                     5.780     0.017   0.0% |
  XC Correction:                             5.763     5.763   0.5% |
 Calculate atomic Hamiltonians:              3.442     3.442   0.3% |
 Communicate:                                0.000     0.000   0.0% |
 Initialize Hamiltonian:                     0.000     0.000   0.0% |
 Poisson:                                    0.213     0.213   0.0% |
 XC 3D grid:                                31.534    31.534   2.8% ||
LCAO initialization:                         0.083     0.017   0.0% |
 LCAO eigensolver:                           0.011     0.000   0.0% |
  Calculate projections:                     0.000     0.000   0.0% |
  DenseAtomicCorrection:                     0.000     0.000   0.0% |
  Distribute overlap matrix:                 0.000     0.000   0.0% |
  Orbital Layouts:                           0.000     0.000   0.0% |
  Potential matrix:                          0.010     0.010   0.0% |
 LCAO to grid:                               0.033     0.033   0.0% |
 Set positions (LCAO WFS):                   0.022     0.004   0.0% |
  Basic WFS set positions:                   0.000     0.000   0.0% |
  Basis functions set positions:             0.000     0.000   0.0% |
  P tci:                                     0.011     0.011   0.0% |
  ST tci:                                    0.003     0.003   0.0% |
  mktci:                                     0.004     0.004   0.0% |
PWDescriptor:                                0.011     0.011   0.0% |
Redistribute:                                0.010     0.010   0.0% |
SCF-cycle:                                1069.754     0.249   0.0% |
 Davidson:                                 115.894    35.247   3.1% ||
  Apply H:                                  15.335    14.417   1.3% ||
   HMM T:                                    0.918     0.918   0.1% |
  Subspace diag:                            19.902     0.047   0.0% |
   calc_h_matrix:                           17.001     1.599   0.1% |
    Apply H:                                15.401    14.369   1.3% ||
     HMM T:                                  1.032     1.032   0.1% |
   diagonalize:                              0.078     0.078   0.0% |
   rotate_psi:                               2.777     2.777   0.2% |
  calc. matrices:                           40.454     9.776   0.9% |
   Apply H:                                 30.678    28.742   2.5% ||
    HMM T:                                   1.936     1.936   0.2% |
  diagonalize:                               0.264     0.264   0.0% |
  rotate_psi:                                4.691     4.691   0.4% |
 Density:                                  103.770     0.008   0.0% |
  Atomic density matrices:                   0.298     0.298   0.0% |
  Mix:                                      91.610    91.610   8.0% |--|
  Multipole moments:                         0.081     0.081   0.0% |
  Pseudo density:                           11.772    11.766   1.0% |
   Symmetrize density:                       0.007     0.007   0.0% |
 Hamiltonian:                              849.399     2.169   0.2% |
  Atomic:                                  119.749     0.344   0.0% |
   XC Correction:                          119.405   119.405  10.4% |---|
  Calculate atomic Hamiltonians:            71.157    71.157   6.2% |-|
  Communicate:                               0.003     0.003   0.0% |
  Poisson:                                   4.257     4.257   0.4% |
  XC 3D grid:                              652.063   652.063  57.0% |----------------------|
 Orthonormalize:                             0.442     0.002   0.0% |
  calc_s_matrix:                             0.049     0.049   0.0% |
  inverse-cholesky:                          0.005     0.005   0.0% |
  projections:                               0.309     0.309   0.0% |
  rotate_psi_s:                              0.077     0.077   0.0% |
Set symmetry:                                0.001     0.001   0.0% |
Other:                                      15.832    15.832   1.4% ||
-------------------------------------------------------------------
Total:                                              1144.601 100.0%

Memory usage: 1.01 GiB
Date: Mon Feb 10 18:35:17 2020
