
  ___ ___ ___ _ _ _  
 |   |   |_  | | | | 
 | | | | | . | | | | 
 |__ |  _|___|_____|  19.8.1
 |___|_|             

User:   ericlin@hebbe29-10
Date:   Tue Feb  4 12:28:44 2020
Arch:   x86_64
Pid:    15720
Python: 3.7.2
gpaw:   /apps/Hebbe7/software/MPI/GCC/8.2.0-2.31.1/OpenMPI/3.1.3/GPAW/19.8.1-Python-3.7.2-libvdwxc/lib/python3.7/site-packages/gpaw
_gpaw:  /apps/Hebbe7/software/MPI/GCC/8.2.0-2.31.1/OpenMPI/3.1.3/GPAW/19.8.1-Python-3.7.2-libvdwxc/bin/
        gpaw-python
ase:    /apps/Hebbe7/software/MPI/GCC/8.2.0-2.31.1/OpenMPI/3.1.3/ASE/3.18.0-Python-3.7.2/lib/python3.7/site-packages/ase (version 3.18.0)
numpy:  /apps/Hebbe7/software/MPI/GCC/8.2.0-2.31.1/OpenMPI/3.1.3/SciPy-bundle/2019.03/lib/python3.7/site-packages/numpy (version 1.16.2)
scipy:  /apps/Hebbe7/software/MPI/GCC/8.2.0-2.31.1/OpenMPI/3.1.3/SciPy-bundle/2019.03/lib/python3.7/site-packages/scipy (version 1.2.1)
libxc:  4.3.4
units:  Angstrom and eV
cores:  1

Input parameters:
  basis: dzp
  h: 0.25
  mode: lcao
  nbands: 15
  occupations: {name: fermi-dirac,
                width: 0.05}
  setups: {Na: 1}

System changes: positions, numbers, cell, pbc, initial_charges, initial_magmoms 

Initialize ...

Na-setup:
  name: Sodium
  id: fa5c50181d04022fed15b2593599c257
  Z: 11
  valence: 1
  core: 10
  charge: 0.0
  file: /apps/Common/Core/GPAW-setups/0.9.20000/Na.1.LDA.gz
  compensation charges: gauss, rc=0.43, lmax=2
  cutoffs: 2.36(filt), 3.60(core),
  valence states:
                energy  radius
    3s(1.00)    -2.819   1.349
    3p(0.00)    -0.774   1.349
    *s          24.392   1.349

  LCAO basis set for Na:
    Name: 1.dzp
    File: /apps/Common/Core/GPAW-setups/0.9.20000/Na.1.dzp.basis.gz
    Number of radial functions: 3
    Number of spherical harmonics: 5
      l=0, rc=11.7656 Bohr: 3s-sz confined orbital
      l=0, rc=7.1094 Bohr: 3s-dz split-valence wave
      l=1, rc=11.7656 Bohr: p-type Gaussian polarization

Reference energy: -26392.251304

Spin-paired calculation

Occupation numbers:
  Fermi-Dirac: width=0.0500 eV

Convergence criteria:
  Maximum total energy change: 0.0005 eV / electron
  Maximum integral of absolute density change: 0.0001 electrons
  Maximum integral of absolute eigenstate change: 4e-08 eV^2
  Maximum number of iterations: 333

Symmetries present (total): 1

  ( 1  0  0)
  ( 0  1  0)
  ( 0  0  1)

1 k-point (Gamma)
1 k-point in the irreducible part of the Brillouin zone
       k-points in crystal coordinates                weights
   0:     0.00000000    0.00000000    0.00000000          1/1

Wave functions: LCAO
  Diagonalizer: Serial LAPACK
  Atomic Correction: dense with blas
  Datatype: float
 

Eigensolver
   LCAO using direct dense diagonalizer 

Densities:
  Coarse grid: 64*64*64 grid
  Fine grid: 128*128*128 grid
  Total Charge: 0.000000 

Density mixing:
  Method: separate
  Backend: pulay
  Linear mixing parameter: 0.25
  Mixing with 3 old densities
  No damping of long wave oscillations 

Hamiltonian:
  XC and Coulomb potentials evaluated on a 128*128*128 grid
  Using the LDA Exchange-Correlation functional
  Interpolation: tri-quintic (5. degree polynomial)
  Poisson solver: FastPoissonSolver using
    6*3+1=19 point O(h^6) finite-difference Laplacian stencil;
    FFT axes: [];
    FST axes: [0, 1, 2].
 

Memory estimate:
  Process memory now: 519.17 MiB
  Calculator: 127.06 MiB
    Density: 80.09 MiB
      Arrays: 50.70 MiB
      Localized functions: 17.94 MiB
      Mixer: 11.45 MiB
    Hamiltonian: 34.46 MiB
      Arrays: 33.16 MiB
      XC: 0.00 MiB
      Poisson: 0.00 MiB
      vbar: 1.29 MiB
    Wavefunctions: 12.52 MiB
      C [qnM]: 0.00 MiB
      S, T [2 x qmm]: 0.01 MiB
      P [aqMi]: 0.00 MiB
      BasisFunctions: 12.50 MiB
      Eigensolver: 0.00 MiB

Total number of cores used: 1

Number of atoms: 6
Number of atomic orbitals: 30
Number of bands in calculation: 15
Bands to converge: occupied states only
Number of valence electrons: 6

... initialized

Initializing position-dependent things.

Density initialized from atomic densities
           .--------------------------------------.  
          /|                                      |  
         / |                                      |  
        /  |                                      |  
       /   |                                      |  
      /    |                                      |  
     /     |                                      |  
    /      |                                      |  
   /       |                                      |  
  /        |                                      |  
 *         |           Na                         |  
 |         |                                      |  
 |         |                Na                    |  
 |         |                                      |  
 |         |            Na                        |  
 |         |                    Na                |  
 |         |                                      |  
 |         |                Na                    |  
 |         |                                      |  
 |         |             Na                       |  
 |         .--------------------------------------.  
 |        /                                      /   
 |       /                                      /    
 |      /                                      /     
 |     /                                      /      
 |    /                                      /       
 |   /                                      /        
 |  /                                      /         
 | /                                      /          
 |/                                      /           
 *--------------------------------------*            

Positions:
   0 Na    11.424955    5.046215    9.661160    ( 0.0000,  0.0000,  0.0000)
   1 Na     9.091214    7.135542   10.719357    ( 0.0000,  0.0000,  0.0000)
   2 Na     6.710298    9.263471   11.516303    ( 0.0000,  0.0000,  0.0000)
   3 Na     7.680133    8.011559    5.125248    ( 0.0000,  0.0000,  0.0000)
   4 Na     9.624253    6.463545    7.292195    ( 0.0000,  0.0000,  0.0000)
   5 Na     7.055205    8.690646    8.283979    ( 0.0000,  0.0000,  0.0000)

Unit cell:
           periodic     x           y           z      points  spacing
  1. axis:    no    16.000000    0.000000    0.000000    64     0.2500
  2. axis:    no     0.000000   16.000000    0.000000    64     0.2500
  3. axis:    no     0.000000    0.000000   16.000000    64     0.2500

  Lengths:  16.000000  16.000000  16.000000
  Angles:   90.000000  90.000000  90.000000

Effective grid spacing dv^(1/3) = 0.2500

                     log10-error:    total        iterations:
           time      wfs    density  energy       fermi  poisson
iter:   1  12:28:48          +inf    -5.137110    1      1      
iter:   2  12:28:49         -0.64    -4.998569    6      1      
iter:   3  12:28:50         -0.84    -4.940656    6      1      
iter:   4  12:28:51         -1.24    -4.933837    3      1      
iter:   5  12:28:52         -2.08    -4.933784    2      1      
iter:   6  12:28:53         -2.32    -4.933793    1      1      
iter:   7  12:28:54         -2.49    -4.933795    2      1      
iter:   8  12:28:55         -3.53    -4.933795    1      1      
iter:   9  12:28:56         -3.75    -4.933795    1      1      
iter:  10  12:28:57         -4.22    -4.933795    1      1      

Converged after 10 iterations.

Dipole moment: (0.000483, -0.001078, 0.002902) |e|*Ang

Energy contributions relative to reference atoms: (reference = -26392.251304)

Kinetic:        +19.193401
Potential:      -17.112915
External:        +0.000000
XC:              -7.035516
Entropy (-ST):   -0.000002
Local:           +0.021236
--------------------------
Free energy:     -4.933796
Extrapolated:    -4.933795

Fermi level: -2.37303

 Band  Eigenvalues  Occupancy
    0     -4.20325    2.00000
    1     -3.13372    2.00000
    2     -3.13203    2.00000
    3     -1.63066    0.00000
    4     -1.55359    0.00000
    5     -1.54922    0.00000
    6      2.06589    0.00000
    7      2.06820    0.00000
    8      2.45416    0.00000
    9      3.37789    0.00000
   10      3.48247    0.00000
   11      3.48858    0.00000
   12      3.86291    0.00000
   13      4.03802    0.00000
   14      4.04466    0.00000

Gap: 1.501 eV
Transition (v -> c):
  (s=0, k=0, n=2, [0.00, 0.00, 0.00]) -> (s=0, k=0, n=3, [0.00, 0.00, 0.00])
System changes: positions 

Initializing position-dependent things.

Density initialized from wave functions
           .--------------------------------------.  
          /|                                      |  
         / |                                      |  
        /  |                                      |  
       /   |                                      |  
      /    |                                      |  
     /     |                                      |  
    /      |                                      |  
   /       |                                      |  
  /        |                                      |  
 *         |                                      |  
 |         |          Na                          |  
 |         |                                      |  
 |         |       Na      Na                     |  
 |         |                Na                    |  
 |         |                                      |  
 |         |                                      |  
 |         |             Na   Na                  |  
 |         |                                      |  
 |         |                                      |  
 |         .--------------------------------------.  
 |        /                                      /   
 |       /                                      /    
 |      /                                      /     
 |     /                                      /      
 |    /                                      /       
 |   /                                      /        
 |  /                                      /         
 | /                                      /          
 |/                                      /           
 *--------------------------------------*            

Positions:
   0 Na     8.210231    9.489933    8.656516    ( 0.0000,  0.0000,  0.0000)
   1 Na     6.417931    8.101846   10.968460    ( 0.0000,  0.0000,  0.0000)
   2 Na     5.009862    9.947279    8.321395    ( 0.0000,  0.0000,  0.0000)
   3 Na     7.211492    9.790525    5.577356    ( 0.0000,  0.0000,  0.0000)
   4 Na     9.992557    7.848605    6.505352    ( 0.0000,  0.0000,  0.0000)
   5 Na     9.477264    6.754058    9.822530    ( 0.0000,  0.0000,  0.0000)

Unit cell:
           periodic     x           y           z      points  spacing
  1. axis:    no    16.000000    0.000000    0.000000    64     0.2500
  2. axis:    no     0.000000   16.000000    0.000000    64     0.2500
  3. axis:    no     0.000000    0.000000   16.000000    64     0.2500

  Lengths:  16.000000  16.000000  16.000000
  Angles:   90.000000  90.000000  90.000000

Effective grid spacing dv^(1/3) = 0.2500

                     log10-error:    total        iterations:
           time      wfs    density  energy       fermi  poisson
iter:   1  12:28:58          +inf    -5.333068    6      1      
iter:   2  12:28:59         -0.46    -5.095070    3      1      
iter:   3  12:29:00         -0.61    -4.900943    4      1      
iter:   4  12:29:01         -1.18    -4.892962    2      1      
iter:   5  12:29:02         -1.51    -4.890073    2      1      
iter:   6  12:29:03         -2.14    -4.889984    1      1      
iter:   7  12:29:04         -2.34    -4.889958    2      1      
iter:   8  12:29:05         -2.71    -4.889953    1      1      
iter:   9  12:29:06         -3.01    -4.889952    1      1      
iter:  10  12:29:07         -3.20    -4.889952    1      1      
iter:  11  12:29:08         -3.44    -4.889951    1      1      
iter:  12  12:29:09         -3.72    -4.889951    1      1      
iter:  13  12:29:10         -3.88    -4.889951    1      1      
iter:  14  12:29:11         -4.19    -4.889951    1      1      

Converged after 14 iterations.

Dipole moment: (0.062503, 0.105999, 0.046933) |e|*Ang

Energy contributions relative to reference atoms: (reference = -26392.251304)

Kinetic:        +20.460182
Potential:      -18.006262
External:        +0.000000
XC:              -7.369868
Entropy (-ST):   -0.000007
Local:           +0.026000
--------------------------
Free energy:     -4.889955
Extrapolated:    -4.889951

Fermi level: -2.38745

 Band  Eigenvalues  Occupancy
    0     -4.35152    2.00000
    1     -3.07576    2.00000
    2     -3.06702    2.00000
    3     -1.73589    0.00000
    4     -1.55561    0.00000
    5     -1.54782    0.00000
    6      1.91812    0.00000
    7      1.92140    0.00000
    8      2.19798    0.00000
    9      3.27523    0.00000
   10      3.43969    0.00000
   11      3.45281    0.00000
   12      3.65629    0.00000
   13      3.67020    0.00000
   14      4.09501    0.00000

Gap: 1.331 eV
Transition (v -> c):
  (s=0, k=0, n=2, [0.00, 0.00, 0.00]) -> (s=0, k=0, n=3, [0.00, 0.00, 0.00])
System changes: positions 

Initializing position-dependent things.

Density initialized from wave functions
           .--------------------------------------.  
          /|                                      |  
         / |                                      |  
        /  |                                      |  
       /   |                                      |  
      /    |                                      |  
     /     |                                      |  
    /      |                                      |  
   /       |                                      |  
  /        |                                      |  
 *         |           Na                         |  
 |         |                                      |  
 |         |                Na                    |  
 |         |                                      |  
 |         |            Na                        |  
 |         |                    Na                |  
 |         |                                      |  
 |         |                Na                    |  
 |         |                                      |  
 |         |             Na                       |  
 |         .--------------------------------------.  
 |        /                                      /   
 |       /                                      /    
 |      /                                      /     
 |     /                                      /      
 |    /                                      /       
 |   /                                      /        
 |  /                                      /         
 | /                                      /          
 |/                                      /           
 *--------------------------------------*            

Positions:
   0 Na    11.424955    5.046215    9.661160    ( 0.0000,  0.0000,  0.0000)
   1 Na     9.091214    7.135542   10.719357    ( 0.0000,  0.0000,  0.0000)
   2 Na     6.710298    9.263471   11.516303    ( 0.0000,  0.0000,  0.0000)
   3 Na     7.680133    8.011559    5.125248    ( 0.0000,  0.0000,  0.0000)
   4 Na     9.624253    6.463545    7.292195    ( 0.0000,  0.0000,  0.0000)
   5 Na     7.055205    8.690646    8.283979    ( 0.0000,  0.0000,  0.0000)

Unit cell:
           periodic     x           y           z      points  spacing
  1. axis:    no    16.000000    0.000000    0.000000    64     0.2500
  2. axis:    no     0.000000   16.000000    0.000000    64     0.2500
  3. axis:    no     0.000000    0.000000   16.000000    64     0.2500

  Lengths:  16.000000  16.000000  16.000000
  Angles:   90.000000  90.000000  90.000000

Effective grid spacing dv^(1/3) = 0.2500

                     log10-error:    total        iterations:
           time      wfs    density  energy       fermi  poisson
iter:   1  12:29:12          +inf    -5.451821    8      1      
iter:   2  12:29:13         -0.38    -5.124911    4      1      
iter:   3  12:29:15         -0.58    -4.951588    5      1      
iter:   4  12:29:16         -1.08    -4.936074    2      1      
iter:   5  12:29:17         -1.55    -4.934168    2      1      
iter:   6  12:29:18         -1.98    -4.933817    1      1      
iter:   7  12:29:19         -2.42    -4.933797    1      1      
iter:   8  12:29:20         -2.69    -4.933795    1      1      
iter:   9  12:29:21         -3.02    -4.933795    1      1      
iter:  10  12:29:22         -3.45    -4.933795    1      1      
iter:  11  12:29:23         -3.77    -4.933795    1      1      
iter:  12  12:29:24         -4.32    -4.933795    0      1      

Converged after 12 iterations.

Dipole moment: (0.000530, -0.001117, 0.002920) |e|*Ang

Energy contributions relative to reference atoms: (reference = -26392.251304)

Kinetic:        +19.197570
Potential:      -17.116481
External:        +0.000000
XC:              -7.035747
Entropy (-ST):   -0.000002
Local:           +0.020865
--------------------------
Free energy:     -4.933796
Extrapolated:    -4.933795

Fermi level: -2.37307

 Band  Eigenvalues  Occupancy
    0     -4.20330    2.00000
    1     -3.13376    2.00000
    2     -3.13208    2.00000
    3     -1.63069    0.00000
    4     -1.55363    0.00000
    5     -1.54927    0.00000
    6      2.06583    0.00000
    7      2.06815    0.00000
    8      2.45410    0.00000
    9      3.37784    0.00000
   10      3.48243    0.00000
   11      3.48852    0.00000
   12      3.86286    0.00000
   13      4.03797    0.00000
   14      4.04460    0.00000

Gap: 1.501 eV
Transition (v -> c):
  (s=0, k=0, n=2, [0.00, 0.00, 0.00]) -> (s=0, k=0, n=3, [0.00, 0.00, 0.00])

Forces in eV/Ang:
  0 Na   -0.00265    0.00301    0.00213
  1 Na    0.00473   -0.00482   -0.00073
  2 Na   -0.00290   -0.00023   -0.00101
  3 Na    0.00007   -0.00171   -0.00386
  4 Na   -0.00210    0.00132   -0.00019
  5 Na    0.00316    0.00271    0.00329

System changes: positions 

Initializing position-dependent things.

Density initialized from wave functions
           .--------------------------------------.  
          /|                                      |  
         / |                                      |  
        /  |                                      |  
       /   |                                      |  
      /    |                                      |  
     /     |                                      |  
    /      |                                      |  
   /       |                                      |  
  /        |                                      |  
 *         |                                      |  
 |         |          Na                          |  
 |         |                                      |  
 |         |       Na      Na                     |  
 |         |                Na                    |  
 |         |                                      |  
 |         |                                      |  
 |         |             Na   Na                  |  
 |         |                                      |  
 |         |                                      |  
 |         .--------------------------------------.  
 |        /                                      /   
 |       /                                      /    
 |      /                                      /     
 |     /                                      /      
 |    /                                      /       
 |   /                                      /        
 |  /                                      /         
 | /                                      /          
 |/                                      /           
 *--------------------------------------*            

Positions:
   0 Na     8.210231    9.489933    8.656516    ( 0.0000,  0.0000,  0.0000)
   1 Na     6.417931    8.101846   10.968460    ( 0.0000,  0.0000,  0.0000)
   2 Na     5.009862    9.947279    8.321395    ( 0.0000,  0.0000,  0.0000)
   3 Na     7.211492    9.790525    5.577356    ( 0.0000,  0.0000,  0.0000)
   4 Na     9.992557    7.848605    6.505352    ( 0.0000,  0.0000,  0.0000)
   5 Na     9.477264    6.754058    9.822530    ( 0.0000,  0.0000,  0.0000)

Unit cell:
           periodic     x           y           z      points  spacing
  1. axis:    no    16.000000    0.000000    0.000000    64     0.2500
  2. axis:    no     0.000000   16.000000    0.000000    64     0.2500
  3. axis:    no     0.000000    0.000000   16.000000    64     0.2500

  Lengths:  16.000000  16.000000  16.000000
  Angles:   90.000000  90.000000  90.000000

Effective grid spacing dv^(1/3) = 0.2500

                     log10-error:    total        iterations:
           time      wfs    density  energy       fermi  poisson
iter:   1  12:29:25          +inf    -5.333096    6      1      
iter:   2  12:29:26         -0.46    -5.095080    3      1      
iter:   3  12:29:27         -0.61    -4.900944    4      1      
iter:   4  12:29:28         -1.18    -4.892962    2      1      
iter:   5  12:29:29         -1.51    -4.890073    2      1      
iter:   6  12:29:30         -2.14    -4.889985    1      1      
iter:   7  12:29:32         -2.34    -4.889958    2      1      
iter:   8  12:29:33         -2.71    -4.889953    1      1      
iter:   9  12:29:34         -3.01    -4.889952    1      1      
iter:  10  12:29:35         -3.20    -4.889952    1      1      
iter:  11  12:29:36         -3.44    -4.889951    1      1      
iter:  12  12:29:37         -3.72    -4.889951    1      1      
iter:  13  12:29:38         -3.88    -4.889951    1      1      
iter:  14  12:29:39         -4.19    -4.889951    1      1      

Converged after 14 iterations.

Dipole moment: (0.062503, 0.105999, 0.046933) |e|*Ang

Energy contributions relative to reference atoms: (reference = -26392.251304)

Kinetic:        +20.460182
Potential:      -18.006262
External:        +0.000000
XC:              -7.369868
Entropy (-ST):   -0.000007
Local:           +0.026000
--------------------------
Free energy:     -4.889955
Extrapolated:    -4.889951

Fermi level: -2.38745

 Band  Eigenvalues  Occupancy
    0     -4.35152    2.00000
    1     -3.07576    2.00000
    2     -3.06702    2.00000
    3     -1.73589    0.00000
    4     -1.55561    0.00000
    5     -1.54782    0.00000
    6      1.91812    0.00000
    7      1.92140    0.00000
    8      2.19798    0.00000
    9      3.27523    0.00000
   10      3.43969    0.00000
   11      3.45281    0.00000
   12      3.65629    0.00000
   13      3.67020    0.00000
   14      4.09501    0.00000

Gap: 1.331 eV
Transition (v -> c):
  (s=0, k=0, n=2, [0.00, 0.00, 0.00]) -> (s=0, k=0, n=3, [0.00, 0.00, 0.00])

Forces in eV/Ang:
  0 Na   -0.00084    0.01582   -0.00286
  1 Na   -0.00132   -0.00819    0.00468
  2 Na   -0.00215    0.00328   -0.00198
  3 Na   -0.00193    0.00218   -0.00239
  4 Na    0.00403   -0.00783   -0.00317
  5 Na    0.00489   -0.00489    0.00407

System changes: positions 

Initializing position-dependent things.

Density initialized from wave functions
           .--------------------------------------.  
          /|                                      |  
         / |                                      |  
        /  |                                      |  
       /   |                                      |  
      /    |                                      |  
     /     |                                      |  
    /      |                                      |  
   /       |                                      |  
  /        |                                      |  
 *         |           Na                         |  
 |         |                                      |  
 |         |                Na                    |  
 |         |                                      |  
 |         |            Na                        |  
 |         |                    Na                |  
 |         |                                      |  
 |         |                Na                    |  
 |         |                                      |  
 |         |             Na                       |  
 |         .--------------------------------------.  
 |        /                                      /   
 |       /                                      /    
 |      /                                      /     
 |     /                                      /      
 |    /                                      /       
 |   /                                      /        
 |  /                                      /         
 | /                                      /          
 |/                                      /           
 *--------------------------------------*            

Positions:
   0 Na    11.424955    5.046215    9.661160    ( 0.0000,  0.0000,  0.0000)
   1 Na     9.091214    7.135542   10.719357    ( 0.0000,  0.0000,  0.0000)
   2 Na     6.710298    9.263471   11.516303    ( 0.0000,  0.0000,  0.0000)
   3 Na     7.680133    8.011559    5.125248    ( 0.0000,  0.0000,  0.0000)
   4 Na     9.624253    6.463545    7.292195    ( 0.0000,  0.0000,  0.0000)
   5 Na     7.055205    8.690646    8.283979    ( 0.0000,  0.0000,  0.0000)

Unit cell:
           periodic     x           y           z      points  spacing
  1. axis:    no    16.000000    0.000000    0.000000    64     0.2500
  2. axis:    no     0.000000   16.000000    0.000000    64     0.2500
  3. axis:    no     0.000000    0.000000   16.000000    64     0.2500

  Lengths:  16.000000  16.000000  16.000000
  Angles:   90.000000  90.000000  90.000000

Effective grid spacing dv^(1/3) = 0.2500

                     log10-error:    total        iterations:
           time      wfs    density  energy       fermi  poisson
iter:   1  12:29:40          +inf    -5.451821    8      1      
iter:   2  12:29:41         -0.38    -5.124911    4      1      
iter:   3  12:29:42         -0.58    -4.951588    5      1      
iter:   4  12:29:43         -1.08    -4.936074    2      1      
iter:   5  12:29:44         -1.55    -4.934168    2      1      
iter:   6  12:29:45         -1.98    -4.933817    1      1      
iter:   7  12:29:46         -2.42    -4.933797    1      1      
iter:   8  12:29:47         -2.69    -4.933795    1      1      
iter:   9  12:29:48         -3.02    -4.933795    1      1      
iter:  10  12:29:49         -3.45    -4.933795    1      1      
iter:  11  12:29:50         -3.77    -4.933795    1      1      
iter:  12  12:29:52         -4.32    -4.933795    0      1      

Converged after 12 iterations.

Dipole moment: (0.000530, -0.001117, 0.002920) |e|*Ang

Energy contributions relative to reference atoms: (reference = -26392.251304)

Kinetic:        +19.197570
Potential:      -17.116481
External:        +0.000000
XC:              -7.035747
Entropy (-ST):   -0.000002
Local:           +0.020865
--------------------------
Free energy:     -4.933796
Extrapolated:    -4.933795

Fermi level: -2.37307

 Band  Eigenvalues  Occupancy
    0     -4.20330    2.00000
    1     -3.13376    2.00000
    2     -3.13208    2.00000
    3     -1.63069    0.00000
    4     -1.55363    0.00000
    5     -1.54927    0.00000
    6      2.06583    0.00000
    7      2.06815    0.00000
    8      2.45410    0.00000
    9      3.37784    0.00000
   10      3.48243    0.00000
   11      3.48852    0.00000
   12      3.86286    0.00000
   13      4.03797    0.00000
   14      4.04460    0.00000

Gap: 1.501 eV
Transition (v -> c):
  (s=0, k=0, n=2, [0.00, 0.00, 0.00]) -> (s=0, k=0, n=3, [0.00, 0.00, 0.00])
System changes: positions 

Initializing position-dependent things.

Density initialized from wave functions
           .--------------------------------------.  
          /|                                      |  
         / |                                      |  
        /  |                                      |  
       /   |                                      |  
      /    |                                      |  
     /     |                                      |  
    /      |                                      |  
   /       |                                      |  
  /        |                                      |  
 *         |                                      |  
 |         |          Na                          |  
 |         |                                      |  
 |         |       Na      Na                     |  
 |         |                Na                    |  
 |         |                                      |  
 |         |                                      |  
 |         |             Na   Na                  |  
 |         |                                      |  
 |         |                                      |  
 |         .--------------------------------------.  
 |        /                                      /   
 |       /                                      /    
 |      /                                      /     
 |     /                                      /      
 |    /                                      /       
 |   /                                      /        
 |  /                                      /         
 | /                                      /          
 |/                                      /           
 *--------------------------------------*            

Positions:
   0 Na     8.210231    9.489933    8.656516    ( 0.0000,  0.0000,  0.0000)
   1 Na     6.417931    8.101846   10.968460    ( 0.0000,  0.0000,  0.0000)
   2 Na     5.009862    9.947279    8.321395    ( 0.0000,  0.0000,  0.0000)
   3 Na     7.211492    9.790525    5.577356    ( 0.0000,  0.0000,  0.0000)
   4 Na     9.992557    7.848605    6.505352    ( 0.0000,  0.0000,  0.0000)
   5 Na     9.477264    6.754058    9.822530    ( 0.0000,  0.0000,  0.0000)

Unit cell:
           periodic     x           y           z      points  spacing
  1. axis:    no    16.000000    0.000000    0.000000    64     0.2500
  2. axis:    no     0.000000   16.000000    0.000000    64     0.2500
  3. axis:    no     0.000000    0.000000   16.000000    64     0.2500

  Lengths:  16.000000  16.000000  16.000000
  Angles:   90.000000  90.000000  90.000000

Effective grid spacing dv^(1/3) = 0.2500

                     log10-error:    total        iterations:
           time      wfs    density  energy       fermi  poisson
iter:   1  12:29:53          +inf    -5.333096    6      1      
iter:   2  12:29:54         -0.46    -5.095080    3      1      
iter:   3  12:29:55         -0.61    -4.900944    4      1      
iter:   4  12:29:56         -1.18    -4.892962    2      1      
iter:   5  12:29:57         -1.51    -4.890073    2      1      
iter:   6  12:29:58         -2.14    -4.889985    1      1      
iter:   7  12:29:59         -2.34    -4.889958    2      1      
iter:   8  12:30:00         -2.71    -4.889953    1      1      
iter:   9  12:30:01         -3.01    -4.889952    1      1      
iter:  10  12:30:02         -3.20    -4.889952    1      1      
iter:  11  12:30:03         -3.44    -4.889951    1      1      
iter:  12  12:30:04         -3.72    -4.889951    1      1      
iter:  13  12:30:05         -3.88    -4.889951    1      1      
iter:  14  12:30:06         -4.19    -4.889951    1      1      

Converged after 14 iterations.

Dipole moment: (0.062503, 0.105999, 0.046933) |e|*Ang

Energy contributions relative to reference atoms: (reference = -26392.251304)

Kinetic:        +20.460182
Potential:      -18.006262
External:        +0.000000
XC:              -7.369868
Entropy (-ST):   -0.000007
Local:           +0.026000
--------------------------
Free energy:     -4.889955
Extrapolated:    -4.889951

Fermi level: -2.38745

 Band  Eigenvalues  Occupancy
    0     -4.35152    2.00000
    1     -3.07576    2.00000
    2     -3.06702    2.00000
    3     -1.73589    0.00000
    4     -1.55561    0.00000
    5     -1.54782    0.00000
    6      1.91812    0.00000
    7      1.92140    0.00000
    8      2.19798    0.00000
    9      3.27523    0.00000
   10      3.43969    0.00000
   11      3.45281    0.00000
   12      3.65629    0.00000
   13      3.67020    0.00000
   14      4.09501    0.00000

Gap: 1.331 eV
Transition (v -> c):
  (s=0, k=0, n=2, [0.00, 0.00, 0.00]) -> (s=0, k=0, n=3, [0.00, 0.00, 0.00])
Timing:                                       incl.     excl.
--------------------------------------------------------------------
Basic WFS set positions:                      0.004     0.002   0.0% |
 Redistribute:                                0.002     0.002   0.0% |
Basis functions set positions:                0.154     0.154   0.2% |
Forces:                                       0.876     0.170   0.2% |
 LCAO forces:                                 0.705     0.001   0.0% |
  Atomic Hamiltonian force:                   0.002     0.002   0.0% |
  Initial:                                    0.000     0.000   0.0% |
   Get density matrix:                        0.000     0.000   0.0% |
  Paw correction:                             0.002     0.002   0.0% |
  Potential:                                  0.655     0.655   0.8% |
  TCI derivative:                             0.045     0.045   0.1% |
  Wait for sum:                               0.000     0.000   0.0% |
LCAO WFS Initialize:                          5.773     0.073   0.1% |
 Density initialized from wave functions:     0.526     0.288   0.4% |
  Calculate density matrix:                   0.000     0.000   0.0% |
  Construct density:                          0.238     0.238   0.3% |
  Symmetrize density:                         0.000     0.000   0.0% |
 Hamiltonian:                                 5.174     0.001   0.0% |
  Atomic:                                     0.570     0.005   0.0% |
   XC Correction:                             0.564     0.564   0.7% |
  Calculate atomic Hamiltonians:              0.026     0.026   0.0% |
  Communicate:                                0.000     0.000   0.0% |
  Hartree integrate/restrict:                 0.256     0.256   0.3% |
  Initialize Hamiltonian:                     0.002     0.002   0.0% |
  Poisson:                                    1.345     0.064   0.1% |
   Communicate bwd 0:                         0.159     0.159   0.2% |
   Communicate bwd 1:                         0.101     0.101   0.1% |
   Communicate fwd 0:                         0.156     0.156   0.2% |
   Communicate fwd 1:                         0.170     0.170   0.2% |
   fft:                                       0.201     0.201   0.2% |
   fft2:                                      0.494     0.494   0.6% |
  XC 3D grid:                                 2.920     2.920   3.6% ||
  vbar:                                       0.053     0.053   0.1% |
P tci:                                        0.063     0.063   0.1% |
Redistribute:                                 0.001     0.001   0.0% |
SCF-cycle:                                   72.129     0.036   0.0% |
 Density:                                     7.550     0.002   0.0% |
  Atomic density matrices:                    0.048     0.048   0.1% |
  Mix:                                        4.064     4.064   5.0% |-|
  Multipole moments:                          0.014     0.014   0.0% |
  Normalize:                                  0.019     0.019   0.0% |
  Pseudo density:                             3.402     0.083   0.1% |
   Calculate density matrix:                  0.003     0.003   0.0% |
   Construct density:                         3.316     3.316   4.1% |-|
   Symmetrize density:                        0.001     0.001   0.0% |
 Hamiltonian:                                60.605     0.008   0.0% |
  Atomic:                                     6.635     0.061   0.1% |
   XC Correction:                             6.574     6.574   8.0% |--|
  Calculate atomic Hamiltonians:              0.307     0.307   0.4% |
  Communicate:                                0.001     0.001   0.0% |
  Hartree integrate/restrict:                 3.082     3.082   3.8% |-|
  Poisson:                                   15.757     0.756   0.9% |
   Communicate bwd 0:                         1.865     1.865   2.3% ||
   Communicate bwd 1:                         1.175     1.175   1.4% ||
   Communicate fwd 0:                         1.845     1.845   2.3% ||
   Communicate fwd 1:                         1.997     1.997   2.4% ||
   fft:                                       2.344     2.344   2.9% ||
   fft2:                                      5.775     5.775   7.1% |--|
  XC 3D grid:                                34.190    34.190  41.8% |----------------|
  vbar:                                       0.625     0.625   0.8% |
 LCAO eigensolver:                            3.938     0.005   0.0% |
  Calculate projections:                      0.004     0.004   0.0% |
  DenseAtomicCorrection:                      0.014     0.014   0.0% |
  Distribute overlap matrix:                  0.001     0.001   0.0% |
  Orbital Layouts:                            0.028     0.028   0.0% |
  Potential matrix:                           3.887     3.887   4.8% |-|
ST tci:                                       0.019     0.019   0.0% |
Set symmetry:                                 0.001     0.001   0.0% |
TCI: Evaluate splines:                        0.023     0.023   0.0% |
mktci:                                        0.006     0.006   0.0% |
Other:                                        2.664     2.664   3.3% ||
--------------------------------------------------------------------
Total:                                                 81.711 100.0%

Memory usage: 519.17 MiB
Date: Tue Feb  4 12:30:06 2020
