
  ___ ___ ___ _ _ _  
 |   |   |_  | | | | 
 | | | | | . | | | | 
 |__ |  _|___|_____|  19.8.1
 |___|_|             

User:   ericlin@hebbe12-1
Date:   Mon Feb  3 23:47:03 2020
Arch:   x86_64
Pid:    31345
Python: 3.7.2
gpaw:   /apps/Hebbe7/software/MPI/intel/2019.1.144-GCC-8.2.0-2.31.1/impi/2018.4.274/GPAW/19.8.1-Python-3.7.2/lib/python3.7/site-packages/gpaw
_gpaw:  /apps/Hebbe7/software/MPI/intel/2019.1.144-GCC-8.2.0-2.31.1/impi/2018.4.274/GPAW/19.8.1-Python-3.7.2/bin/
        gpaw-python
ase:    /apps/Hebbe7/software/MPI/intel/2019.1.144-GCC-8.2.0-2.31.1/impi/2018.4.274/ASE/3.18.0-Python-3.7.2/lib/python3.7/site-packages/ase (version 3.18.0)
numpy:  /apps/Hebbe7/software/MPI/intel/2019.1.144-GCC-8.2.0-2.31.1/impi/2018.4.274/SciPy-bundle/2019.03/lib/python3.7/site-packages/numpy (version 1.16.2)
scipy:  /apps/Hebbe7/software/MPI/intel/2019.1.144-GCC-8.2.0-2.31.1/impi/2018.4.274/SciPy-bundle/2019.03/lib/python3.7/site-packages/scipy (version 1.2.1)
libxc:  4.3.4
units:  Angstrom and eV
cores:  4

Input parameters:
  basis: dzp
  h: 0.25
  mode: lcao
  nbands: 15
  occupations: {name: fermi-dirac,
                width: 0.05}
  setups: {Na: 1}

System changes: positions, numbers, cell, pbc, initial_charges, initial_magmoms 

Initialize ...

Na-setup:
  name: Sodium
  id: fa5c50181d04022fed15b2593599c257
  Z: 11
  valence: 1
  core: 10
  charge: 0.0
  file: /apps/Common/Core/GPAW-setups/0.9.20000/Na.1.LDA.gz
  compensation charges: gauss, rc=0.43, lmax=2
  cutoffs: 2.36(filt), 3.60(core),
  valence states:
                energy  radius
    3s(1.00)    -2.819   1.349
    3p(0.00)    -0.774   1.349
    *s          24.392   1.349

  LCAO basis set for Na:
    Name: 1.dzp
    File: /apps/Common/Core/GPAW-setups/0.9.20000/Na.1.dzp.basis.gz
    Number of radial functions: 3
    Number of spherical harmonics: 5
      l=0, rc=11.7656 Bohr: 3s-sz confined orbital
      l=0, rc=7.1094 Bohr: 3s-dz split-valence wave
      l=1, rc=11.7656 Bohr: p-type Gaussian polarization

Reference energy: -26392.251304

Spin-paired calculation

Occupation numbers:
  Fermi-Dirac: width=0.0500 eV

Convergence criteria:
  Maximum total energy change: 0.0005 eV / electron
  Maximum integral of absolute density change: 0.0001 electrons
  Maximum integral of absolute eigenstate change: 4e-08 eV^2
  Maximum number of iterations: 333

Symmetries present (total): 1

  ( 1  0  0)
  ( 0  1  0)
  ( 0  0  1)

1 k-point (Gamma)
1 k-point in the irreducible part of the Brillouin zone
       k-points in crystal coordinates                weights
   0:     0.00000000    0.00000000    0.00000000          1/1

Wave functions: LCAO
  Diagonalizer: Serial LAPACK
  Atomic Correction: dense with blas
  Datatype: float
 

Eigensolver
   LCAO using direct dense diagonalizer 

Densities:
  Coarse grid: 64*64*64 grid
  Fine grid: 128*128*128 grid
  Total Charge: 0.000000 

Density mixing:
  Method: separate
  Backend: pulay
  Linear mixing parameter: 0.25
  Mixing with 3 old densities
  No damping of long wave oscillations 

Hamiltonian:
  XC and Coulomb potentials evaluated on a 128*128*128 grid
  Using the LDA Exchange-Correlation functional
  Interpolation: tri-quintic (5. degree polynomial)
  Poisson solver: FastPoissonSolver using
    6*3+1=19 point O(h^6) finite-difference Laplacian stencil;
    FFT axes: [];
    FST axes: [0, 1, 2].
 

Memory estimate:
  Process memory now: 289.65 MiB
  Calculator: 31.34 MiB
    Density: 19.72 MiB
      Arrays: 12.46 MiB
      Localized functions: 4.49 MiB
      Mixer: 2.77 MiB
    Hamiltonian: 8.48 MiB
      Arrays: 8.15 MiB
      XC: 0.00 MiB
      Poisson: 0.00 MiB
      vbar: 0.32 MiB
    Wavefunctions: 3.14 MiB
      C [qnM]: 0.00 MiB
      S, T [2 x qmm]: 0.01 MiB
      P [aqMi]: 0.00 MiB
      BasisFunctions: 3.13 MiB
      Eigensolver: 0.00 MiB

Total number of cores used: 4
Domain decomposition: 2 x 2 x 1

Number of atoms: 6
Number of atomic orbitals: 30
Number of bands in calculation: 15
Bands to converge: occupied states only
Number of valence electrons: 6

... initialized

Initializing position-dependent things.

Density initialized from atomic densities
           .--------------------------------------.  
          /|                                      |  
         / |                                      |  
        /  |                                      |  
       /   |                                      |  
      /    |                                      |  
     /     |                                      |  
    /      |                                      |  
   /       |                                      |  
  /        |                                      |  
 *         |           Na                         |  
 |         |                                      |  
 |         |                Na                    |  
 |         |                                      |  
 |         |            Na                        |  
 |         |                    Na                |  
 |         |                                      |  
 |         |                Na                    |  
 |         |                                      |  
 |         |             Na                       |  
 |         .--------------------------------------.  
 |        /                                      /   
 |       /                                      /    
 |      /                                      /     
 |     /                                      /      
 |    /                                      /       
 |   /                                      /        
 |  /                                      /         
 | /                                      /          
 |/                                      /           
 *--------------------------------------*            

Positions:
   0 Na    11.424955    5.046215    9.661160    ( 0.0000,  0.0000,  0.0000)
   1 Na     9.091214    7.135542   10.719357    ( 0.0000,  0.0000,  0.0000)
   2 Na     6.710298    9.263471   11.516303    ( 0.0000,  0.0000,  0.0000)
   3 Na     7.680133    8.011559    5.125248    ( 0.0000,  0.0000,  0.0000)
   4 Na     9.624253    6.463545    7.292195    ( 0.0000,  0.0000,  0.0000)
   5 Na     7.055205    8.690646    8.283979    ( 0.0000,  0.0000,  0.0000)

Unit cell:
           periodic     x           y           z      points  spacing
  1. axis:    no    16.000000    0.000000    0.000000    64     0.2500
  2. axis:    no     0.000000   16.000000    0.000000    64     0.2500
  3. axis:    no     0.000000    0.000000   16.000000    64     0.2500

  Lengths:  16.000000  16.000000  16.000000
  Angles:   90.000000  90.000000  90.000000

Effective grid spacing dv^(1/3) = 0.2500

                     log10-error:    total        iterations:
           time      wfs    density  energy       fermi  poisson
iter:   1  23:47:04          +inf    -5.137110    1      1      
iter:   2  23:47:05         -0.64    -4.998569    6      1      
iter:   3  23:47:05         -0.84    -4.940656    6      1      
iter:   4  23:47:05         -1.24    -4.933837    3      1      
iter:   5  23:47:06         -2.08    -4.933784    2      1      
iter:   6  23:47:06         -2.32    -4.933793    1      1      
iter:   7  23:47:06         -2.49    -4.933795    2      1      
iter:   8  23:47:07         -3.53    -4.933795    1      1      
iter:   9  23:47:07         -3.75    -4.933795    1      1      
iter:  10  23:47:07         -4.22    -4.933795    1      1      

Converged after 10 iterations.

Dipole moment: (0.000483, -0.001078, 0.002902) |e|*Ang

Energy contributions relative to reference atoms: (reference = -26392.251304)

Kinetic:        +19.193401
Potential:      -17.112915
External:        +0.000000
XC:              -7.035516
Entropy (-ST):   -0.000002
Local:           +0.021236
--------------------------
Free energy:     -4.933796
Extrapolated:    -4.933795

Fermi level: -2.37303

 Band  Eigenvalues  Occupancy
    0     -4.20325    2.00000
    1     -3.13372    2.00000
    2     -3.13203    2.00000
    3     -1.63066    0.00000
    4     -1.55359    0.00000
    5     -1.54922    0.00000
    6      2.06589    0.00000
    7      2.06820    0.00000
    8      2.45416    0.00000
    9      3.37789    0.00000
   10      3.48247    0.00000
   11      3.48858    0.00000
   12      3.86291    0.00000
   13      4.03802    0.00000
   14      4.04466    0.00000

Gap: 1.501 eV
Transition (v -> c):
  (s=0, k=0, n=2, [0.00, 0.00, 0.00]) -> (s=0, k=0, n=3, [0.00, 0.00, 0.00])
System changes: positions 

Initializing position-dependent things.

Density initialized from wave functions
           .--------------------------------------.  
          /|                                      |  
         / |                                      |  
        /  |                                      |  
       /   |                                      |  
      /    |                                      |  
     /     |                                      |  
    /      |                                      |  
   /       |                                      |  
  /        |                                      |  
 *         |                                      |  
 |         |          Na                          |  
 |         |                                      |  
 |         |       Na      Na                     |  
 |         |                Na                    |  
 |         |                                      |  
 |         |                                      |  
 |         |             Na   Na                  |  
 |         |                                      |  
 |         |                                      |  
 |         .--------------------------------------.  
 |        /                                      /   
 |       /                                      /    
 |      /                                      /     
 |     /                                      /      
 |    /                                      /       
 |   /                                      /        
 |  /                                      /         
 | /                                      /          
 |/                                      /           
 *--------------------------------------*            

Positions:
   0 Na     8.210231    9.489933    8.656516    ( 0.0000,  0.0000,  0.0000)
   1 Na     6.417931    8.101846   10.968460    ( 0.0000,  0.0000,  0.0000)
   2 Na     5.009862    9.947279    8.321395    ( 0.0000,  0.0000,  0.0000)
   3 Na     7.211492    9.790525    5.577356    ( 0.0000,  0.0000,  0.0000)
   4 Na     9.992557    7.848605    6.505352    ( 0.0000,  0.0000,  0.0000)
   5 Na     9.477264    6.754058    9.822530    ( 0.0000,  0.0000,  0.0000)

Unit cell:
           periodic     x           y           z      points  spacing
  1. axis:    no    16.000000    0.000000    0.000000    64     0.2500
  2. axis:    no     0.000000   16.000000    0.000000    64     0.2500
  3. axis:    no     0.000000    0.000000   16.000000    64     0.2500

  Lengths:  16.000000  16.000000  16.000000
  Angles:   90.000000  90.000000  90.000000

Effective grid spacing dv^(1/3) = 0.2500

                     log10-error:    total        iterations:
           time      wfs    density  energy       fermi  poisson
iter:   1  23:47:08          +inf    -5.333068    6      1      
iter:   2  23:47:08         -0.46    -5.095070    3      1      
iter:   3  23:47:09         -0.61    -4.900943    4      1      
iter:   4  23:47:09         -1.18    -4.892962    2      1      
iter:   5  23:47:09         -1.51    -4.890073    2      1      
iter:   6  23:47:10         -2.14    -4.889984    1      1      
iter:   7  23:47:10         -2.34    -4.889958    2      1      
iter:   8  23:47:10         -2.71    -4.889953    1      1      
iter:   9  23:47:11         -3.01    -4.889952    1      1      
iter:  10  23:47:11         -3.20    -4.889952    1      1      
iter:  11  23:47:11         -3.44    -4.889951    1      1      
iter:  12  23:47:12         -3.72    -4.889951    1      1      
iter:  13  23:47:12         -3.88    -4.889951    1      1      
iter:  14  23:47:13         -4.19    -4.889951    1      1      

Converged after 14 iterations.

Dipole moment: (0.062503, 0.105999, 0.046933) |e|*Ang

Energy contributions relative to reference atoms: (reference = -26392.251304)

Kinetic:        +20.460182
Potential:      -18.006262
External:        +0.000000
XC:              -7.369868
Entropy (-ST):   -0.000007
Local:           +0.026000
--------------------------
Free energy:     -4.889955
Extrapolated:    -4.889951

Fermi level: -2.38745

 Band  Eigenvalues  Occupancy
    0     -4.35152    2.00000
    1     -3.07576    2.00000
    2     -3.06702    2.00000
    3     -1.73589    0.00000
    4     -1.55561    0.00000
    5     -1.54782    0.00000
    6      1.91812    0.00000
    7      1.92140    0.00000
    8      2.19798    0.00000
    9      3.27523    0.00000
   10      3.43969    0.00000
   11      3.45281    0.00000
   12      3.65629    0.00000
   13      3.67020    0.00000
   14      4.09501    0.00000

Gap: 1.331 eV
Transition (v -> c):
  (s=0, k=0, n=2, [0.00, 0.00, 0.00]) -> (s=0, k=0, n=3, [0.00, 0.00, 0.00])
System changes: positions 

Initializing position-dependent things.

Density initialized from wave functions
           .--------------------------------------.  
          /|                                      |  
         / |                                      |  
        /  |                                      |  
       /   |                                      |  
      /    |                                      |  
     /     |                                      |  
    /      |                                      |  
   /       |                                      |  
  /        |                                      |  
 *         |           Na                         |  
 |         |                                      |  
 |         |                Na                    |  
 |         |                                      |  
 |         |            Na                        |  
 |         |                    Na                |  
 |         |                                      |  
 |         |                Na                    |  
 |         |                                      |  
 |         |             Na                       |  
 |         .--------------------------------------.  
 |        /                                      /   
 |       /                                      /    
 |      /                                      /     
 |     /                                      /      
 |    /                                      /       
 |   /                                      /        
 |  /                                      /         
 | /                                      /          
 |/                                      /           
 *--------------------------------------*            

Positions:
   0 Na    11.424955    5.046215    9.661160    ( 0.0000,  0.0000,  0.0000)
   1 Na     9.091214    7.135542   10.719357    ( 0.0000,  0.0000,  0.0000)
   2 Na     6.710298    9.263471   11.516303    ( 0.0000,  0.0000,  0.0000)
   3 Na     7.680133    8.011559    5.125248    ( 0.0000,  0.0000,  0.0000)
   4 Na     9.624253    6.463545    7.292195    ( 0.0000,  0.0000,  0.0000)
   5 Na     7.055205    8.690646    8.283979    ( 0.0000,  0.0000,  0.0000)

Unit cell:
           periodic     x           y           z      points  spacing
  1. axis:    no    16.000000    0.000000    0.000000    64     0.2500
  2. axis:    no     0.000000   16.000000    0.000000    64     0.2500
  3. axis:    no     0.000000    0.000000   16.000000    64     0.2500

  Lengths:  16.000000  16.000000  16.000000
  Angles:   90.000000  90.000000  90.000000

Effective grid spacing dv^(1/3) = 0.2500

                     log10-error:    total        iterations:
           time      wfs    density  energy       fermi  poisson
iter:   1  23:47:13          +inf    -5.451821    8      1      
iter:   2  23:47:13         -0.38    -5.124911    4      1      
iter:   3  23:47:14         -0.58    -4.951588    5      1      
iter:   4  23:47:14         -1.08    -4.936074    2      1      
iter:   5  23:47:14         -1.55    -4.934168    2      1      
iter:   6  23:47:15         -1.98    -4.933817    1      1      
iter:   7  23:47:15         -2.42    -4.933797    1      1      
iter:   8  23:47:16         -2.69    -4.933795    1      1      
iter:   9  23:47:16         -3.02    -4.933795    1      1      
iter:  10  23:47:16         -3.45    -4.933795    1      1      
iter:  11  23:47:17         -3.77    -4.933795    1      1      
iter:  12  23:47:17         -4.32    -4.933795    0      1      

Converged after 12 iterations.

Dipole moment: (0.000530, -0.001117, 0.002920) |e|*Ang

Energy contributions relative to reference atoms: (reference = -26392.251304)

Kinetic:        +19.197570
Potential:      -17.116481
External:        +0.000000
XC:              -7.035747
Entropy (-ST):   -0.000002
Local:           +0.020865
--------------------------
Free energy:     -4.933796
Extrapolated:    -4.933795

Fermi level: -2.37307

 Band  Eigenvalues  Occupancy
    0     -4.20330    2.00000
    1     -3.13376    2.00000
    2     -3.13208    2.00000
    3     -1.63069    0.00000
    4     -1.55363    0.00000
    5     -1.54927    0.00000
    6      2.06583    0.00000
    7      2.06815    0.00000
    8      2.45410    0.00000
    9      3.37784    0.00000
   10      3.48243    0.00000
   11      3.48852    0.00000
   12      3.86286    0.00000
   13      4.03797    0.00000
   14      4.04460    0.00000

Gap: 1.501 eV
Transition (v -> c):
  (s=0, k=0, n=2, [0.00, 0.00, 0.00]) -> (s=0, k=0, n=3, [0.00, 0.00, 0.00])

Forces in eV/Ang:
  0 Na   -0.00265    0.00301    0.00213
  1 Na    0.00473   -0.00482   -0.00073
  2 Na   -0.00290   -0.00023   -0.00101
  3 Na    0.00007   -0.00171   -0.00386
  4 Na   -0.00210    0.00132   -0.00019
  5 Na    0.00316    0.00271    0.00329

System changes: positions 

Initializing position-dependent things.

Density initialized from wave functions
           .--------------------------------------.  
          /|                                      |  
         / |                                      |  
        /  |                                      |  
       /   |                                      |  
      /    |                                      |  
     /     |                                      |  
    /      |                                      |  
   /       |                                      |  
  /        |                                      |  
 *         |                                      |  
 |         |          Na                          |  
 |         |                                      |  
 |         |       Na      Na                     |  
 |         |                Na                    |  
 |         |                                      |  
 |         |                                      |  
 |         |             Na   Na                  |  
 |         |                                      |  
 |         |                                      |  
 |         .--------------------------------------.  
 |        /                                      /   
 |       /                                      /    
 |      /                                      /     
 |     /                                      /      
 |    /                                      /       
 |   /                                      /        
 |  /                                      /         
 | /                                      /          
 |/                                      /           
 *--------------------------------------*            

Positions:
   0 Na     8.210231    9.489933    8.656516    ( 0.0000,  0.0000,  0.0000)
   1 Na     6.417931    8.101846   10.968460    ( 0.0000,  0.0000,  0.0000)
   2 Na     5.009862    9.947279    8.321395    ( 0.0000,  0.0000,  0.0000)
   3 Na     7.211492    9.790525    5.577356    ( 0.0000,  0.0000,  0.0000)
   4 Na     9.992557    7.848605    6.505352    ( 0.0000,  0.0000,  0.0000)
   5 Na     9.477264    6.754058    9.822530    ( 0.0000,  0.0000,  0.0000)

Unit cell:
           periodic     x           y           z      points  spacing
  1. axis:    no    16.000000    0.000000    0.000000    64     0.2500
  2. axis:    no     0.000000   16.000000    0.000000    64     0.2500
  3. axis:    no     0.000000    0.000000   16.000000    64     0.2500

  Lengths:  16.000000  16.000000  16.000000
  Angles:   90.000000  90.000000  90.000000

Effective grid spacing dv^(1/3) = 0.2500

                     log10-error:    total        iterations:
           time      wfs    density  energy       fermi  poisson
iter:   1  23:47:18          +inf    -5.333096    6      1      
iter:   2  23:47:18         -0.46    -5.095080    3      1      
iter:   3  23:47:18         -0.61    -4.900944    4      1      
iter:   4  23:47:19         -1.18    -4.892962    2      1      
iter:   5  23:47:19         -1.51    -4.890073    2      1      
iter:   6  23:47:19         -2.14    -4.889985    1      1      
iter:   7  23:47:20         -2.34    -4.889958    2      1      
iter:   8  23:47:20         -2.71    -4.889953    1      1      
iter:   9  23:47:20         -3.01    -4.889952    1      1      
iter:  10  23:47:21         -3.20    -4.889952    1      1      
iter:  11  23:47:21         -3.44    -4.889951    1      1      
iter:  12  23:47:22         -3.72    -4.889951    1      1      
iter:  13  23:47:22         -3.88    -4.889951    1      1      
iter:  14  23:47:22         -4.19    -4.889951    1      1      

Converged after 14 iterations.

Dipole moment: (0.062503, 0.105999, 0.046933) |e|*Ang

Energy contributions relative to reference atoms: (reference = -26392.251304)

Kinetic:        +20.460182
Potential:      -18.006262
External:        +0.000000
XC:              -7.369868
Entropy (-ST):   -0.000007
Local:           +0.026000
--------------------------
Free energy:     -4.889955
Extrapolated:    -4.889951

Fermi level: -2.38745

 Band  Eigenvalues  Occupancy
    0     -4.35152    2.00000
    1     -3.07576    2.00000
    2     -3.06702    2.00000
    3     -1.73589    0.00000
    4     -1.55561    0.00000
    5     -1.54782    0.00000
    6      1.91812    0.00000
    7      1.92140    0.00000
    8      2.19798    0.00000
    9      3.27523    0.00000
   10      3.43969    0.00000
   11      3.45281    0.00000
   12      3.65629    0.00000
   13      3.67020    0.00000
   14      4.09501    0.00000

Gap: 1.331 eV
Transition (v -> c):
  (s=0, k=0, n=2, [0.00, 0.00, 0.00]) -> (s=0, k=0, n=3, [0.00, 0.00, 0.00])

Forces in eV/Ang:
  0 Na   -0.00084    0.01582   -0.00286
  1 Na   -0.00132   -0.00819    0.00468
  2 Na   -0.00215    0.00328   -0.00198
  3 Na   -0.00193    0.00218   -0.00239
  4 Na    0.00403   -0.00783   -0.00317
  5 Na    0.00489   -0.00489    0.00407

System changes: positions 

Initializing position-dependent things.

Density initialized from wave functions
           .--------------------------------------.  
          /|                                      |  
         / |                                      |  
        /  |                                      |  
       /   |                                      |  
      /    |                                      |  
     /     |                                      |  
    /      |                                      |  
   /       |                                      |  
  /        |                                      |  
 *         |           Na                         |  
 |         |                                      |  
 |         |                Na                    |  
 |         |                                      |  
 |         |            Na                        |  
 |         |                    Na                |  
 |         |                                      |  
 |         |                Na                    |  
 |         |                                      |  
 |         |             Na                       |  
 |         .--------------------------------------.  
 |        /                                      /   
 |       /                                      /    
 |      /                                      /     
 |     /                                      /      
 |    /                                      /       
 |   /                                      /        
 |  /                                      /         
 | /                                      /          
 |/                                      /           
 *--------------------------------------*            

Positions:
   0 Na    11.424955    5.046215    9.661160    ( 0.0000,  0.0000,  0.0000)
   1 Na     9.091214    7.135542   10.719357    ( 0.0000,  0.0000,  0.0000)
   2 Na     6.710298    9.263471   11.516303    ( 0.0000,  0.0000,  0.0000)
   3 Na     7.680133    8.011559    5.125248    ( 0.0000,  0.0000,  0.0000)
   4 Na     9.624253    6.463545    7.292195    ( 0.0000,  0.0000,  0.0000)
   5 Na     7.055205    8.690646    8.283979    ( 0.0000,  0.0000,  0.0000)

Unit cell:
           periodic     x           y           z      points  spacing
  1. axis:    no    16.000000    0.000000    0.000000    64     0.2500
  2. axis:    no     0.000000   16.000000    0.000000    64     0.2500
  3. axis:    no     0.000000    0.000000   16.000000    64     0.2500

  Lengths:  16.000000  16.000000  16.000000
  Angles:   90.000000  90.000000  90.000000

Effective grid spacing dv^(1/3) = 0.2500

                     log10-error:    total        iterations:
           time      wfs    density  energy       fermi  poisson
iter:   1  23:47:23          +inf    -5.451821    8      1      
iter:   2  23:47:23         -0.38    -5.124911    4      1      
iter:   3  23:47:24         -0.58    -4.951588    5      1      
iter:   4  23:47:24         -1.08    -4.936074    2      1      
iter:   5  23:47:24         -1.55    -4.934168    2      1      
iter:   6  23:47:25         -1.98    -4.933817    1      1      
iter:   7  23:47:25         -2.42    -4.933797    1      1      
iter:   8  23:47:25         -2.69    -4.933795    1      1      
iter:   9  23:47:26         -3.02    -4.933795    1      1      
iter:  10  23:47:26         -3.45    -4.933795    1      1      
iter:  11  23:47:26         -3.77    -4.933795    1      1      
iter:  12  23:47:27         -4.32    -4.933795    0      1      

Converged after 12 iterations.

Dipole moment: (0.000530, -0.001117, 0.002920) |e|*Ang

Energy contributions relative to reference atoms: (reference = -26392.251304)

Kinetic:        +19.197570
Potential:      -17.116481
External:        +0.000000
XC:              -7.035747
Entropy (-ST):   -0.000002
Local:           +0.020865
--------------------------
Free energy:     -4.933796
Extrapolated:    -4.933795

Fermi level: -2.37307

 Band  Eigenvalues  Occupancy
    0     -4.20330    2.00000
    1     -3.13376    2.00000
    2     -3.13208    2.00000
    3     -1.63069    0.00000
    4     -1.55363    0.00000
    5     -1.54927    0.00000
    6      2.06583    0.00000
    7      2.06815    0.00000
    8      2.45410    0.00000
    9      3.37784    0.00000
   10      3.48243    0.00000
   11      3.48852    0.00000
   12      3.86286    0.00000
   13      4.03797    0.00000
   14      4.04460    0.00000

Gap: 1.501 eV
Transition (v -> c):
  (s=0, k=0, n=2, [0.00, 0.00, 0.00]) -> (s=0, k=0, n=3, [0.00, 0.00, 0.00])
System changes: positions 

Initializing position-dependent things.

Density initialized from wave functions
           .--------------------------------------.  
          /|                                      |  
         / |                                      |  
        /  |                                      |  
       /   |                                      |  
      /    |                                      |  
     /     |                                      |  
    /      |                                      |  
   /       |                                      |  
  /        |                                      |  
 *         |                                      |  
 |         |          Na                          |  
 |         |                                      |  
 |         |       Na      Na                     |  
 |         |                Na                    |  
 |         |                                      |  
 |         |                                      |  
 |         |             Na   Na                  |  
 |         |                                      |  
 |         |                                      |  
 |         .--------------------------------------.  
 |        /                                      /   
 |       /                                      /    
 |      /                                      /     
 |     /                                      /      
 |    /                                      /       
 |   /                                      /        
 |  /                                      /         
 | /                                      /          
 |/                                      /           
 *--------------------------------------*            

Positions:
   0 Na     8.210231    9.489933    8.656516    ( 0.0000,  0.0000,  0.0000)
   1 Na     6.417931    8.101846   10.968460    ( 0.0000,  0.0000,  0.0000)
   2 Na     5.009862    9.947279    8.321395    ( 0.0000,  0.0000,  0.0000)
   3 Na     7.211492    9.790525    5.577356    ( 0.0000,  0.0000,  0.0000)
   4 Na     9.992557    7.848605    6.505352    ( 0.0000,  0.0000,  0.0000)
   5 Na     9.477264    6.754058    9.822530    ( 0.0000,  0.0000,  0.0000)

Unit cell:
           periodic     x           y           z      points  spacing
  1. axis:    no    16.000000    0.000000    0.000000    64     0.2500
  2. axis:    no     0.000000   16.000000    0.000000    64     0.2500
  3. axis:    no     0.000000    0.000000   16.000000    64     0.2500

  Lengths:  16.000000  16.000000  16.000000
  Angles:   90.000000  90.000000  90.000000

Effective grid spacing dv^(1/3) = 0.2500

                     log10-error:    total        iterations:
           time      wfs    density  energy       fermi  poisson
iter:   1  23:47:27          +inf    -5.333096    6      1      
iter:   2  23:47:28         -0.46    -5.095080    3      1      
iter:   3  23:47:28         -0.61    -4.900944    4      1      
iter:   4  23:47:28         -1.18    -4.892962    2      1      
iter:   5  23:47:29         -1.51    -4.890073    2      1      
iter:   6  23:47:29         -2.14    -4.889985    1      1      
iter:   7  23:47:29         -2.34    -4.889958    2      1      
iter:   8  23:47:30         -2.71    -4.889953    1      1      
iter:   9  23:47:30         -3.01    -4.889952    1      1      
iter:  10  23:47:31         -3.20    -4.889952    1      1      
iter:  11  23:47:31         -3.44    -4.889951    1      1      
iter:  12  23:47:31         -3.72    -4.889951    1      1      
iter:  13  23:47:32         -3.88    -4.889951    1      1      
iter:  14  23:47:32         -4.19    -4.889951    1      1      

Converged after 14 iterations.

Dipole moment: (0.062503, 0.105999, 0.046933) |e|*Ang

Energy contributions relative to reference atoms: (reference = -26392.251304)

Kinetic:        +20.460182
Potential:      -18.006262
External:        +0.000000
XC:              -7.369868
Entropy (-ST):   -0.000007
Local:           +0.026000
--------------------------
Free energy:     -4.889955
Extrapolated:    -4.889951

Fermi level: -2.38745

 Band  Eigenvalues  Occupancy
    0     -4.35152    2.00000
    1     -3.07576    2.00000
    2     -3.06702    2.00000
    3     -1.73589    0.00000
    4     -1.55561    0.00000
    5     -1.54782    0.00000
    6      1.91812    0.00000
    7      1.92140    0.00000
    8      2.19798    0.00000
    9      3.27523    0.00000
   10      3.43969    0.00000
   11      3.45281    0.00000
   12      3.65629    0.00000
   13      3.67020    0.00000
   14      4.09501    0.00000

Gap: 1.331 eV
Transition (v -> c):
  (s=0, k=0, n=2, [0.00, 0.00, 0.00]) -> (s=0, k=0, n=3, [0.00, 0.00, 0.00])
Timing:                                       incl.     excl.
--------------------------------------------------------------------
Basic WFS set positions:                      0.003     0.002   0.0% |
 Redistribute:                                0.001     0.001   0.0% |
Basis functions set positions:                0.062     0.062   0.2% |
Forces:                                       0.300     0.158   0.5% |
 LCAO forces:                                 0.142     0.000   0.0% |
  Atomic Hamiltonian force:                   0.000     0.000   0.0% |
  Initial:                                    0.000     0.000   0.0% |
   Get density matrix:                        0.000     0.000   0.0% |
  Paw correction:                             0.000     0.000   0.0% |
  Potential:                                  0.120     0.120   0.4% |
  TCI derivative:                             0.022     0.022   0.1% |
  Wait for sum:                               0.000     0.000   0.0% |
LCAO WFS Initialize:                          2.039     0.023   0.1% |
 Density initialized from wave functions:     0.218     0.150   0.5% |
  Calculate density matrix:                   0.000     0.000   0.0% |
  Construct density:                          0.067     0.067   0.2% |
  Symmetrize density:                         0.000     0.000   0.0% |
 Hamiltonian:                                 1.799     0.001   0.0% |
  Atomic:                                     0.078     0.004   0.0% |
   XC Correction:                             0.074     0.074   0.3% |
  Calculate atomic Hamiltonians:              0.029     0.029   0.1% |
  Communicate:                                0.078     0.078   0.3% |
  Hartree integrate/restrict:                 0.070     0.070   0.2% |
  Initialize Hamiltonian:                     0.001     0.001   0.0% |
  Poisson:                                    1.045     0.019   0.1% |
   Communicate bwd 0:                         0.220     0.220   0.7% |
   Communicate bwd 1:                         0.209     0.209   0.7% |
   Communicate fwd 0:                         0.207     0.207   0.7% |
   Communicate fwd 1:                         0.216     0.216   0.7% |
   fft:                                       0.055     0.055   0.2% |
   fft2:                                      0.119     0.119   0.4% |
  XC 3D grid:                                 0.487     0.487   1.7% ||
  vbar:                                       0.010     0.010   0.0% |
P tci:                                        0.002     0.002   0.0% |
Redistribute:                                 0.001     0.001   0.0% |
SCF-cycle:                                   25.596     0.038   0.1% |
 Density:                                     3.057     0.002   0.0% |
  Atomic density matrices:                    0.673     0.673   2.3% ||
  Mix:                                        1.406     1.406   4.8% |-|
  Multipole moments:                          0.012     0.012   0.0% |
  Normalize:                                  0.009     0.009   0.0% |
  Pseudo density:                             0.955     0.023   0.1% |
   Calculate density matrix:                  0.003     0.003   0.0% |
   Construct density:                         0.928     0.928   3.2% ||
   Symmetrize density:                        0.001     0.001   0.0% |
 Hamiltonian:                                20.962     0.008   0.0% |
  Atomic:                                     0.908     0.040   0.1% |
   XC Correction:                             0.868     0.868   2.9% ||
  Calculate atomic Hamiltonians:              0.259     0.259   0.9% |
  Communicate:                                0.916     0.916   3.1% ||
  Hartree integrate/restrict:                 0.860     0.860   2.9% ||
  Poisson:                                   12.198     0.222   0.8% |
   Communicate bwd 0:                         2.561     2.561   8.7% |--|
   Communicate bwd 1:                         2.454     2.454   8.3% |--|
   Communicate fwd 0:                         2.411     2.411   8.2% |--|
   Communicate fwd 1:                         2.519     2.519   8.6% |--|
   fft:                                       0.636     0.636   2.2% ||
   fft2:                                      1.395     1.395   4.7% |-|
  XC 3D grid:                                 5.702     5.702  19.4% |-------|
  vbar:                                       0.110     0.110   0.4% |
 LCAO eigensolver:                            1.539     0.005   0.0% |
  Calculate projections:                      0.001     0.001   0.0% |
  DenseAtomicCorrection:                      0.002     0.002   0.0% |
  Distribute overlap matrix:                  0.598     0.598   2.0% ||
  Orbital Layouts:                            0.023     0.023   0.1% |
  Potential matrix:                           0.910     0.910   3.1% ||
ST tci:                                       0.009     0.009   0.0% |
Set symmetry:                                 0.001     0.001   0.0% |
TCI: Evaluate splines:                        0.019     0.019   0.1% |
mktci:                                        0.007     0.007   0.0% |
Other:                                        1.407     1.407   4.8% |-|
--------------------------------------------------------------------
Total:                                                 29.445 100.0%

Memory usage: 289.65 MiB
Date: Mon Feb  3 23:47:32 2020
