LAMMPS data file via write_data, version 7 Aug 2019, timestep = 50000

432 atoms
1 atom types

-8.5804068029133873e-03 1.7140380406803146e+01 xlo xhi
-8.5804068029133873e-03 1.7140380406803146e+01 ylo yhi
-8.5804068029133873e-03 1.7140380406803146e+01 zlo zhi

Masses

1 56

Atoms # atomic

2 1 1.4381005120317933e+00 1.4398791133991715e+00 1.4421678254208123e+00 0 0 0
85 1 2.8341154973550977e+00 2.9278257004948016e+00 3.7468256167849975e-02 0 0 0
87 1 2.8123474253678116e+00 2.9548080569732345e+00 2.9468532530092983e+00 0 0 0
14 1 1.4676358537637773e+00 4.2733482161508771e+00 1.4552079567114991e+00 0 0 0
76 1 4.2395039188001542e+00 1.4920312096530712e+00 4.1731123691716938e+00 0 0 0
74 1 4.3374621640230702e+00 1.5345667215590042e+00 1.4213309475829943e+00 0 0 0
146 1 7.1754221268289697e+00 1.6230493864194455e+00 1.3855834321133258e+00 0 0 0
147 1 5.8865231301477561e+00 6.9502312653594456e-03 2.7930875023317920e+00 0 0 0
159 1 5.7885816893537392e+00 2.8762462138635971e+00 2.8279331185845398e+00 0 0 0
158 1 7.1653957218892170e+00 4.2663526317174085e+00 1.2879565898621295e+00 0 0 0
160 1 7.0914368074063470e+00 4.2451581561371219e+00 4.2489181478738418e+00 0 0 0
218 1 1.0084213423377056e+01 1.4974544623498962e+00 1.4993305856083627e+00 0 0 0
219 1 8.6798981832632407e+00 7.0734001611183817e-02 2.7970447298978045e+00 0 0 0
231 1 8.6083177086577578e+00 2.9321807684638821e+00 2.8603829734528872e+00 0 0 0
303 1 1.1467971247415978e+01 2.9270395093285040e+00 2.8434897055330315e+00 0 0 0
302 1 1.2798528208568266e+01 4.2645557681045636e+00 1.4366057442614448e+00 0 0 0
220 1 9.9627121147384692e+00 1.3968645083856290e+00 4.1836967025960243e+00 0 0 0
3 1 1.7114135518254127e+01 1.1717549833520333e-02 2.8192486848143625e+00 -1 0 0
15 1 1.7079492274201709e+01 2.8363234406770967e+00 2.8190607055772738e+00 -1 0 0
290 1 1.2889530376679298e+01 1.3693677922572014e+00 1.4523151447200093e+00 0 0 0
362 1 1.5695800913379848e+01 1.4735149172000126e+00 1.3311065195179881e+00 0 0 0
363 1 1.4287137629655636e+01 -3.3878343536666760e-03 2.8098728441876100e+00 0 0 0
373 1 1.4267550005317361e+01 2.8867576952371858e+00 -6.0556455859009147e-03 0 0 0
375 1 1.4298474896117643e+01 2.8574815134357494e+00 2.8257821605207356e+00 0 0 0
374 1 1.5695778940481663e+01 4.2478272207666974e+00 1.3966072215731729e+00 0 0 0
364 1 1.5629948763490884e+01 1.3298034846093472e+00 4.1924369392251810e+00 0 0 0
26 1 1.3840638619397743e+00 7.0206646281915814e+00 1.4383494651853139e+00 0 0 0
99 1 2.8711121864345457e+00 5.6155908640687393e+00 2.9365461202561502e+00 0 0 0
111 1 2.7870677032259477e+00 8.5508530277194712e+00 2.8951028630049502e+00 0 0 0
86 1 4.3304930872072287e+00 4.3516257257749160e+00 1.4045669499299440e+00 0 0 0
98 1 4.2998343960448482e+00 7.2641179162070602e+00 1.3877415654545961e+00 0 0 0
170 1 7.2209602129917938e+00 7.1492249312811902e+00 1.3656541286472865e+00 0 0 0
171 1 5.6867275312122327e+00 5.7302513706038534e+00 2.8468960234423690e+00 0 0 0
243 1 8.5619423889168207e+00 5.7405499107592446e+00 2.7967187865616427e+00 0 0 0
172 1 7.1317551055025072e+00 7.0478173061183886e+00 4.1879997278661616e+00 0 0 0
230 1 1.0043612353002763e+01 4.3755121928983405e+00 1.3594682055579712e+00 0 0 0
242 1 1.0117508889374761e+01 7.0993032084729570e+00 1.4489641520993533e+00 0 0 0
315 1 1.1542330311670156e+01 5.6336600576242342e+00 2.8198931910649208e+00 0 0 0
253 1 8.6508416175693394e+00 8.5139845877627938e+00 4.0832476248816779e-02 0 0 0
232 1 1.0000873864089932e+01 4.3245395033800991e+00 4.2682466822016618e+00 0 0 0
244 1 9.9961382031936807e+00 7.1779562447219893e+00 4.2405426887837194e+00 0 0 0
27 1 1.7106433017774499e+01 5.6187925290359164e+00 2.8952254107582891e+00 -1 0 0
314 1 1.2908223382941586e+01 7.1099831247815208e+00 1.3346666139046814e+00 0 0 0
386 1 1.5672172857471374e+01 6.9866566953267117e+00 1.4297371955534395e+00 0 0 0
387 1 1.4147482037494848e+01 5.7030747087673168e+00 2.8800235327364372e+00 0 0 0
39 1 1.7136263545368706e+01 8.4618214949363715e+00 2.6592205338885520e+00 -1 0 0
399 1 1.4276160603119829e+01 8.5641257732330445e+00 2.7708254588722747e+00 0 0 0
388 1 1.5641222961698324e+01 7.0598442433788167e+00 4.2287190546905409e+00 0 0 0
37 1 4.3365629761239491e-02 8.5683168047855727e+00 5.2689726298507794e-02 0 0 0
38 1 1.5088456196196884e+00 9.9168106943672960e+00 1.4585676831304903e+00 0 0 0
51 1 5.4432601558850199e-02 1.1432155992523505e+01 2.7580521304282799e+00 0 0 0
121 1 2.9034632627576560e+00 1.1443348977382453e+01 -1.9777453596072705e-03 0 0 0
123 1 2.8409037333033718e+00 1.1369334527284677e+01 2.6645504223600640e+00 0 0 0
110 1 4.2501997448895414e+00 9.9326373663031813e+00 1.5772722092061386e+00 0 0 0
50 1 1.5234834724266888e+00 1.2819749561316721e+01 1.4411373324958028e+00 0 0 0
122 1 4.2357856109697920e+00 1.2835016864245656e+01 1.4319264181847908e+00 0 0 0
40 1 1.4014306376140993e+00 1.0093122829862455e+01 4.2236047412198241e+00 0 0 0
181 1 5.7584105505341778e+00 8.6196441604370282e+00 7.8955591071944844e-02 0 0 0
182 1 7.2068366027907036e+00 9.9933138528810588e+00 1.4606945295204237e+00 0 0 0
183 1 5.7701806743450677e+00 8.5660288921916194e+00 2.8947823147714868e+00 0 0 0
193 1 5.6814379452514503e+00 1.1469230793722495e+01 1.9764356302650696e-02 0 0 0
195 1 5.7290928236950700e+00 1.1441678445331963e+01 2.7589935507650369e+00 0 0 0
255 1 8.5134490744798352e+00 8.5839056506751046e+00 2.7652008153066872e+00 0 0 0
184 1 7.1468014199242358e+00 1.0068161419868639e+01 4.2139469974399777e+00 0 0 0
254 1 9.9751848999620734e+00 1.0041577017166748e+01 1.4177748351776571e+00 0 0 0
267 1 8.6132458830273926e+00 1.1509333479803383e+01 2.8151762801139184e+00 0 0 0
325 1 1.1534342306824263e+01 8.6728446782477917e+00 -4.7653308335201573e-03 0 0 0
327 1 1.1598030097524214e+01 8.6154471948966087e+00 2.7015487740678994e+00 0 0 0
339 1 1.1490285020126747e+01 1.1541530126567881e+01 2.9146055156841708e+00 0 0 0
266 1 1.0029859046907049e+01 1.2850836861987089e+01 1.4826953088035151e+00 0 0 0
256 1 1.0089394874064626e+01 9.9530262274378405e+00 4.1006950354973926e+00 0 0 0
412 1 1.5687900317333948e+01 1.2824726048424008e+01 4.2006753923721591e+00 0 0 0
326 1 1.2970788483058209e+01 9.9812783906635634e+00 1.4304149493717482e+00 0 0 0
398 1 1.5779321308355383e+01 1.0057948694433591e+01 1.3445822429247563e+00 0 0 0
411 1 1.4335457662981071e+01 1.1471209109555877e+01 2.8064469274487673e+00 0 0 0
410 1 1.5674890281728983e+01 1.2839395094800897e+01 1.4286282795118037e+00 0 0 0
328 1 1.2942521976541567e+01 9.9640700782112681e+00 4.2745692050999580e+00 0 0 0
400 1 1.5650391838431942e+01 9.9921095455295106e+00 4.2139779872037364e+00 0 0 0
73 1 2.7554981269833703e+00 1.7110466935963913e+01 3.7158982008136700e-02 0 -1 0
75 1 2.8944570078035419e+00 1.7128057711280317e+01 2.6539823984707187e+00 0 -1 0
61 1 2.9109162159568137e-02 1.4286928440639432e+01 -5.4074508472293954e-03 0 0 0
62 1 1.3549838848464455e+00 1.5742916075492895e+01 1.4977528458726512e+00 0 0 0
133 1 2.8849184712699945e+00 1.4478363010378773e+01 4.0296312245353273e-02 0 0 0
135 1 2.8454438444292145e+00 1.4326575940679897e+01 2.8011387426375349e+00 0 0 0
52 1 1.4373322895652101e+00 1.2913798507577187e+01 4.2158797020361591e+00 0 0 0
136 1 4.2342279348642045e+00 1.5766315876273147e+01 4.2417491842438357e+00 0 0 0
208 1 7.1628092510497563e+00 1.5844213615234811e+01 4.2465445296627102e+00 0 0 0
134 1 4.3600598786234332e+00 1.5794248678277720e+01 1.5414752659099817e+00 0 0 0
194 1 7.1552921892688222e+00 1.2904469402279975e+01 1.4683451335830495e+00 0 0 0
205 1 5.8144659970911832e+00 1.4391870251886713e+01 9.4452330470644469e-03 0 0 0
206 1 7.2076084418681932e+00 1.5768580197301954e+01 1.3797633691978863e+00 0 0 0
207 1 5.6959711457835018e+00 1.4323884840264427e+01 2.7891660138430576e+00 0 0 0
196 1 6.9860271066782245e+00 1.2879965931782069e+01 4.2728853088740628e+00 0 0 0
279 1 8.5545638637597090e+00 1.4305557356514516e+01 2.9271522951457114e+00 0 0 0
124 1 4.3445091286483031e+00 1.2955982429465214e+01 4.2470799246237485e+00 0 0 0
289 1 1.1373382137711683e+01 1.7132006307900351e+01 1.9650033070607229e-02 0 -1 0
291 1 1.1444468719768443e+01 1.7114435052608400e+01 2.8782318231495552e+00 0 -1 0
278 1 9.9686951946930424e+00 1.5681024397999716e+01 1.4068684305422123e+00 0 0 0
349 1 1.1310304536478913e+01 1.4286619856331686e+01 5.7390992626801668e-02 0 0 0
351 1 1.1542232662700030e+01 1.4277845904484861e+01 2.8505434129988467e+00 0 0 0
350 1 1.2804334396382188e+01 1.5608791388806527e+01 1.4048072900778530e+00 0 0 0
1 1 1.7118205363677131e+01 1.7083701096916844e+01 5.8408981584764392e-03 -1 -1 0
424 1 1.5728867884228624e+01 1.5624104893133277e+01 4.2430289876283744e+00 0 0 0
63 1 1.7121900992547598e+01 1.4306056702541092e+01 2.8746274551612090e+00 -1 0 0
338 1 1.2894547903378699e+01 1.2962678404296714e+01 1.4226669187852659e+00 0 0 0
422 1 1.5597226981803361e+01 1.5718454696107262e+01 1.3947169730395457e+00 0 0 0
423 1 1.4303978926462610e+01 1.4291660031132798e+01 2.8722480527364178e+00 0 0 0
4 1 1.4273649242554727e+00 1.3997696159138473e+00 4.3146028382947081e+00 0 0 0
6 1 1.3215559264201955e+00 1.2925309893886550e+00 7.1384248140478732e+00 0 0 0
77 1 2.8804685237365382e+00 -1.2117910240269413e-03 5.7081036277407913e+00 0 0 0
89 1 2.8562528223174182e+00 2.8073559411566533e+00 5.7560568636421507e+00 0 0 0
78 1 4.1646681664274228e+00 1.4210638197838359e+00 7.2210364975920189e+00 0 0 0
16 1 1.2629798065470894e+00 4.2102009865727510e+00 4.2901087355648482e+00 0 0 0
18 1 1.2475416575838283e+00 4.1687018743051487e+00 7.0732244792014169e+00 0 0 0
91 1 2.8471955928927337e+00 2.8483118348482703e+00 8.5346544634151673e+00 0 0 0
148 1 7.1649713047788461e+00 1.3810534624593622e+00 4.2800698723857638e+00 0 0 0
149 1 5.7386940285365613e+00 1.5328483131813303e-01 5.7325814983177006e+00 0 0 0
150 1 7.1092824735797171e+00 1.5346699530670980e+00 7.2090794897446946e+00 0 0 0
161 1 5.6627540281415518e+00 2.8466683310848286e+00 5.6603121331469417e+00 0 0 0
235 1 8.5460942761007246e+00 3.0050322908126521e+00 8.5533066575983376e+00 0 0 0
221 1 8.6405616250531612e+00 1.3731990295354876e-01 5.7179336653313841e+00 0 0 0
222 1 1.0009438384637035e+01 1.4689735014717018e+00 7.1046906621758543e+00 0 0 0
233 1 8.6132519281898858e+00 2.8771603127132108e+00 5.6186351171304976e+00 0 0 0
305 1 1.1325463970911668e+01 2.8335474551715620e+00 5.6665922519324194e+00 0 0 0
294 1 1.2791479812686585e+01 1.4322355581508028e+00 7.1872657122733221e+00 0 0 0
307 1 1.1351627097222334e+01 2.8226762709958861e+00 8.5376980048686999e+00 0 0 0
17 1 1.6961151044587098e+01 2.7191413257894728e+00 5.7022224098993188e+00 -1 0 0
292 1 1.2864967874045684e+01 1.5253620437504531e+00 4.2894583116436307e+00 0 0 0
365 1 1.4289874384534931e+01 1.1465079729653282e-02 5.7575884208105510e+00 0 0 0
366 1 1.5736883344355281e+01 1.5420130202296625e+00 7.1955284051988224e+00 0 0 0
377 1 1.4243968077917504e+01 2.7608920688170695e+00 5.7942603155196757e+00 0 0 0
376 1 1.5649237916302887e+01 4.2464617463274612e+00 4.3278013414273397e+00 0 0 0
378 1 1.5668780250950505e+01 4.1630378341348599e+00 7.1890699117844754e+00 0 0 0
379 1 1.4169500782742038e+01 2.9380026272353228e+00 8.5304543497460070e+00 0 0 0
28 1 1.4070870082520852e+00 7.0647376662099051e+00 4.3783149277704521e+00 0 0 0
30 1 1.4054688262846047e+00 7.1178393159194080e+00 7.1111261396750107e+00 0 0 0
101 1 2.8400336003053512e+00 5.6296699600252982e+00 5.7716680613230151e+00 0 0 0
88 1 4.2224421384084581e+00 4.3192755903454358e+00 4.3698258244811861e+00 0 0 0
90 1 4.2587846131117821e+00 4.3298388398041219e+00 7.1505001654246332e+00 0 0 0
102 1 4.2355650190066152e+00 7.1851810637514593e+00 7.0772403439785965e+00 0 0 0
113 1 2.7525484067772705e+00 8.5081048635036165e+00 5.7010562416533110e+00 0 0 0
115 1 2.7717082795359236e+00 8.4668879380558888e+00 8.4483733811351200e+00 0 0 0
100 1 4.3162183161596550e+00 7.2222505655028231e+00 4.3202260221517506e+00 0 0 0
162 1 7.1432876831156946e+00 4.3346330261436057e+00 6.9207278067691345e+00 0 0 0
173 1 5.7672664254985078e+00 5.7890457493031811e+00 5.6434922976486179e+00 0 0 0
174 1 7.2323764693775985e+00 7.1538365642010122e+00 7.0513381005109688e+00 0 0 0
245 1 8.4494544266101599e+00 5.6307329514062818e+00 5.6414842583022580e+00 0 0 0
247 1 8.5379740681499197e+00 5.6567686962341623e+00 8.4496613072711106e+00 0 0 0
234 1 1.0042831997169662e+01 4.2860689330381980e+00 7.1059183752819495e+00 0 0 0
246 1 9.9797584750906054e+00 7.1938611433940594e+00 7.0759353175697717e+00 0 0 0
317 1 1.1390560694360941e+01 5.7750719324707394e+00 5.6820796761398729e+00 0 0 0
304 1 1.2813084518047791e+01 4.3688064406169937e+00 4.3691159933911514e+00 0 0 0
257 1 8.5824315056928171e+00 8.5522236022333242e+00 5.5283248635207931e+00 0 0 0
331 1 1.1405225167547345e+01 8.5591938446726505e+00 8.5622285570536576e+00 0 0 0
29 1 1.7079984911340020e+01 5.6693416841905764e+00 5.6779884012955248e+00 -1 0 0
306 1 1.2871083659165473e+01 4.3137600811996784e+00 7.1204814434470176e+00 0 0 0
316 1 1.2880271749661636e+01 7.2016032676443649e+00 4.3065038460696359e+00 0 0 0
318 1 1.2881639284695392e+01 7.0991967250015939e+00 7.1243515640092347e+00 0 0 0
389 1 1.4296898437792560e+01 5.8069684407318327e+00 5.7193404291116128e+00 0 0 0
390 1 1.5697784316826560e+01 7.0649701041707420e+00 7.2086497814458310e+00 0 0 0
401 1 1.4400405524757069e+01 8.5145862515248414e+00 5.6902750692421016e+00 0 0 0
43 1 1.7080108775823994e+01 8.5330527508384488e+00 8.5179364220681641e+00 -1 0 0
42 1 1.4244373638940928e+00 1.0062803580087996e+01 7.1857910408922017e+00 0 0 0
125 1 2.7496590254984383e+00 1.1354180759051708e+01 5.6848056387581130e+00 0 0 0
112 1 4.2748684289683423e+00 9.9385385142303857e+00 4.3270975589276750e+00 0 0 0
114 1 4.2606543450724397e+00 9.9158449108571212e+00 7.1433021041812745e+00 0 0 0
55 1 2.0006924091170823e-02 1.1470753571009700e+01 8.5516699500193241e+00 0 0 0
127 1 2.8922881649350667e+00 1.1473266891171539e+01 8.5136541014738878e+00 0 0 0
185 1 5.8549955045486515e+00 8.6145358930679450e+00 5.7343194811561196e+00 0 0 0
186 1 7.1415953883479633e+00 9.9690584332502752e+00 7.1488210021691208e+00 0 0 0
197 1 5.7455699044002806e+00 1.1362833917293734e+01 5.6789483895344697e+00 0 0 0
269 1 8.4844202291916275e+00 1.1445878595467633e+01 5.6877352299568020e+00 0 0 0
271 1 8.4842385408046948e+00 1.1417906108334304e+01 8.5548867428450404e+00 0 0 0
270 1 9.9857120772363839e+00 1.2731086115100760e+01 7.1102056242848981e+00 0 0 0
258 1 9.9349983122420316e+00 9.9229231762305226e+00 7.0103424974738830e+00 0 0 0
329 1 1.1383401141089591e+01 8.5740628232170017e+00 5.6104499875893055e+00 0 0 0
341 1 1.1429426150602886e+01 1.1377896171795379e+01 5.6414429471045136e+00 0 0 0
343 1 1.1314139388628922e+01 1.1332814128866383e+01 8.5386883389319621e+00 0 0 0
414 1 1.5719268902764581e+01 1.2836397343778250e+01 7.0461641770610211e+00 0 0 0
340 1 1.2982566188955012e+01 1.2846392202396476e+01 4.3997342854819976e+00 0 0 0
41 1 1.7091533985161814e+01 8.6859230914081529e+00 5.5635436360130255e+00 -1 0 0
53 1 1.7083797821562946e+01 1.1340896293354662e+01 5.8093869773113962e+00 -1 0 0
330 1 1.2869023605059537e+01 9.9014223139853268e+00 7.1093812873239042e+00 0 0 0
402 1 1.5678908210111425e+01 9.8728459139941229e+00 7.2246880353976790e+00 0 0 0
413 1 1.4245061327983437e+01 1.1293121816592457e+01 5.7840334939819495e+00 0 0 0
54 1 1.3423887233743181e+00 1.2948559812624715e+01 7.1085124341361716e+00 0 0 0
64 1 1.4377433268851834e+00 1.5820757715853317e+01 4.2935813344072784e+00 0 0 0
65 1 1.2028474953714022e-02 1.4259994869441242e+01 5.7397067135469078e+00 0 0 0
66 1 1.3484397087616702e+00 1.5744903672565819e+01 7.1124455662318447e+00 0 0 0
137 1 2.8812299990738754e+00 1.4346117464931675e+01 5.6347937730060211e+00 0 0 0
126 1 4.2382460093432544e+00 1.2889116034759091e+01 7.0756666076148420e+00 0 0 0
79 1 2.8582170284252801e+00 1.7093466449646101e+01 8.5592172669219924e+00 0 -1 0
281 1 8.4967488495822234e+00 1.4369973966320138e+01 5.7233223906454391e+00 0 0 0
210 1 7.1519486930546607e+00 1.5808005966468864e+01 7.0076903535664599e+00 0 0 0
209 1 5.6794407841222725e+00 1.4399505668484487e+01 5.7398047794760529e+00 0 0 0
198 1 7.0803871617009690e+00 1.2962651962121345e+01 7.0677054984831207e+00 0 0 0
138 1 4.3137266417507396e+00 1.5751253646534057e+01 7.1679075016375613e+00 0 0 0
354 1 1.2749804254720322e+01 1.5651456207665746e+01 7.1411669082467339e+00 0 0 0
342 1 1.2724702889666119e+01 1.2872750399178157e+01 7.0891728742409130e+00 0 0 0
353 1 1.1394220772365159e+01 1.4364456972369517e+01 5.6598748052101424e+00 0 0 0
282 1 9.9971968757133176e+00 1.5659605814787346e+01 7.0999723506608765e+00 0 0 0
280 1 9.9926710039735696e+00 1.5751086992296528e+01 4.2931413093037145e+00 0 0 0
268 1 9.9696372260277091e+00 1.2905416532477455e+01 4.3334680716383511e+00 0 0 0
293 1 1.1478464049743806e+01 1.7116594682189419e+01 5.6514078300201884e+00 0 -1 0
283 1 8.6200001622040485e+00 1.4228764089521952e+01 8.4501517731730491e+00 0 0 0
355 1 1.1356173447387025e+01 1.4147725202783752e+01 8.5150251200857685e+00 0 0 0
426 1 1.5641061592704791e+01 1.5723945054562609e+01 7.1719132050908261e+00 0 0 0
425 1 1.4275687550394649e+01 1.4280822901876300e+01 5.7811124883626492e+00 0 0 0
352 1 1.2879967614960220e+01 1.5668983952126975e+01 4.2838319824895592e+00 0 0 0
5 1 1.7018386773102325e+01 1.7137495472151162e+01 5.6585123018719727e+00 -1 -1 0
8 1 1.4672303718534732e+00 1.4287655796949625e+00 1.0053411658123963e+01 0 0 0
19 1 1.4954274242113132e-02 2.8472323693569370e+00 8.7393734161024099e+00 0 0 0
21 1 1.4906227808956347e-02 2.8551071532928147e+00 1.1527571911605843e+01 0 0 0
93 1 2.9424831825892741e+00 2.9149735590629389e+00 1.1377336080291505e+01 0 0 0
80 1 4.2508830723546742e+00 1.4690317182764661e+00 1.0037525782929398e+01 0 0 0
20 1 1.3595041681304125e+00 4.2084562218619004e+00 1.0042452482427869e+01 0 0 0
10 1 1.4899205320038000e+00 1.3503666477207441e+00 1.2814590552262741e+01 0 0 0
152 1 7.2078061666012090e+00 1.4248629818142662e+00 1.0024987236900429e+01 0 0 0
153 1 5.6774416252724142e+00 4.6144537859937391e-02 1.1382158673296816e+01 0 0 0
163 1 5.7471434797073808e+00 2.8142540443172983e+00 8.6202541407642990e+00 0 0 0
165 1 5.7455818690062852e+00 2.8425491893752590e+00 1.1425065749950470e+01 0 0 0
92 1 4.3794978320227234e+00 4.2330379247140693e+00 1.0004331711776603e+01 0 0 0
164 1 7.1401817907530312e+00 4.2502166578327873e+00 9.9869770555316855e+00 0 0 0
223 1 8.6142308347018766e+00 -4.8020549193678388e-03 8.6996535875543319e+00 0 0 0
224 1 1.0013255468122706e+01 1.3770504419724072e+00 1.0008883060591048e+01 0 0 0
237 1 8.6435576910877625e+00 2.8790417853974266e+00 1.1426499660236274e+01 0 0 0
309 1 1.1486740297894062e+01 2.8993424999389812e+00 1.1469305950566250e+01 0 0 0
296 1 1.2786010096936689e+01 1.4955207159546664e+00 1.0020577815065504e+01 0 0 0
226 1 9.9950876686496919e+00 1.3970824831330737e+00 1.2822672617770001e+01 0 0 0
368 1 1.5722035742732897e+01 1.4462294485535041e+00 1.0094558166311076e+01 0 0 0
369 1 1.4168228694917330e+01 -3.1536735246460307e-03 1.1390536742558631e+01 0 0 0
381 1 1.4214333273582472e+01 2.8536621597994998e+00 1.1442405283362158e+01 0 0 0
380 1 1.5743525628251877e+01 4.1725800987836141e+00 1.0043781016210472e+01 0 0 0
370 1 1.5697983940319972e+01 1.4460383353389785e+00 1.2729201242913419e+01 0 0 0
382 1 1.5693273022627306e+01 4.2508984959708318e+00 1.2840744795958242e+01 0 0 0
31 1 -2.6256710340413526e-03 5.5896671756911296e+00 8.6229132378967641e+00 0 0 0
32 1 1.4423140011258055e+00 7.1228316843050372e+00 9.9573444995840656e+00 0 0 0
103 1 2.8666978444996043e+00 5.7239049090792031e+00 8.7074515560961032e+00 0 0 0
105 1 2.8063827311287506e+00 5.6586710538608180e+00 1.1431869828967779e+01 0 0 0
45 1 -1.0112478843998527e-03 8.5052993434417665e+00 1.1457260383632917e+01 0 0 0
117 1 2.8496080274213758e+00 8.5633873457279019e+00 1.1343833846500157e+01 0 0 0
104 1 4.2790346216674875e+00 7.1999838674310244e+00 1.0066485928505939e+01 0 0 0
175 1 5.6663835248658296e+00 5.6808662419814411e+00 8.5824077084945749e+00 0 0 0
176 1 7.1081734537807160e+00 6.9960980641517745e+00 9.9572874492100567e+00 0 0 0
177 1 5.6653931445961518e+00 5.7416195770911997e+00 1.1477054959923159e+01 0 0 0
249 1 8.5556187490060687e+00 5.7345573690752749e+00 1.1441180361977761e+01 0 0 0
187 1 5.6492904495262293e+00 8.4352518769957996e+00 8.6382318294216311e+00 0 0 0
189 1 5.6459747612423952e+00 8.4610333469698116e+00 1.1538567472132641e+01 0 0 0
259 1 8.5538673806131929e+00 8.5484805171792253e+00 8.5843763574608811e+00 0 0 0
261 1 8.5169370252107033e+00 8.4916888250157783e+00 1.1501683924593060e+01 0 0 0
166 1 7.1033296108949626e+00 4.2949611850536353e+00 1.2794512624966563e+01 0 0 0
236 1 1.0084716269381412e+01 4.2874417331244548e+00 1.0056664825996570e+01 0 0 0
248 1 9.8378085490304237e+00 7.1017384771906373e+00 1.0025288875968801e+01 0 0 0
319 1 1.1340017147370036e+01 5.7466849707781478e+00 8.6234480171866110e+00 0 0 0
321 1 1.1419895005268479e+01 5.7513517517693913e+00 1.1489057104523605e+01 0 0 0
320 1 1.2761763006662768e+01 7.2435614728467659e+00 1.0048083140920774e+01 0 0 0
33 1 1.7074253290842361e+01 5.6524488233282932e+00 1.1486747717294573e+01 -1 0 0
308 1 1.2895834421092001e+01 4.3179628131907331e+00 9.9764217423922528e+00 0 0 0
391 1 1.4260880528764282e+01 5.6983033670172603e+00 8.5763794153960493e+00 0 0 0
392 1 1.5711439727358593e+01 7.2220002725795176e+00 9.9267462790022005e+00 0 0 0
393 1 1.4321834765114613e+01 5.7294572005081701e+00 1.1419184165685371e+01 0 0 0
394 1 1.5704923809468630e+01 7.1134230291246681e+00 1.2826691863855391e+01 0 0 0
44 1 1.4220400026217148e+00 9.9846653371747269e+00 9.9409756367722455e+00 0 0 0
57 1 2.3386552567463033e-02 1.1484372435209057e+01 1.1504820829406045e+01 0 0 0
129 1 2.9475782179160381e+00 1.1323288439646497e+01 1.1425519994998893e+01 0 0 0
116 1 4.2505991419757034e+00 9.8795675669311969e+00 9.9990612107975299e+00 0 0 0
56 1 1.3139720552619782e+00 1.2818740643718851e+01 1.0136950855164596e+01 0 0 0
128 1 4.2115501733445218e+00 1.2678141985863503e+01 1.0151806781107892e+01 0 0 0
188 1 7.1398629655920054e+00 9.8315525646103517e+00 9.9559104747453944e+00 0 0 0
199 1 5.8396564224116903e+00 1.1313106588726153e+01 8.6022066821268446e+00 0 0 0
201 1 5.9000694583396482e+00 1.1336000710033751e+01 1.1381958492322806e+01 0 0 0
260 1 9.8957475522977809e+00 1.0072446648676458e+01 1.0021712824761652e+01 0 0 0
273 1 8.5711101257273246e+00 1.1421388878716698e+01 1.1481993917990570e+01 0 0 0
333 1 1.1309711242186072e+01 8.6211120588001400e+00 1.1450166041671071e+01 0 0 0
345 1 1.1350865536353799e+01 1.1344124771066534e+01 1.1442652209549010e+01 0 0 0
332 1 1.2728648312728883e+01 9.9599291426453025e+00 1.0070132558233466e+01 0 0 0
344 1 1.2803681274074384e+01 1.2765630178468550e+01 9.9607820040275801e+00 0 0 0
403 1 1.4196852365343979e+01 8.5753800697918461e+00 8.6340388339796448e+00 0 0 0
404 1 1.5753043466672453e+01 1.0003484559111925e+01 9.9757883573410542e+00 0 0 0
405 1 1.4197923714741808e+01 8.6263547381826182e+00 1.1583099982082443e+01 0 0 0
415 1 1.4058333974876701e+01 1.1404644938138128e+01 8.5880052267326334e+00 0 0 0
417 1 1.4337214835389068e+01 1.1481331602008185e+01 1.1506046792029984e+01 0 0 0
416 1 1.5708387529937978e+01 1.2752470244884998e+01 9.9767786267389482e+00 0 0 0
406 1 1.5746903875060013e+01 1.0022360838233757e+01 1.2848083816187319e+01 0 0 0
81 1 2.8806159007304570e+00 1.7079001647197455e+01 1.1361643910764219e+01 0 -1 0
68 1 1.5332266403305517e+00 1.5646291079806881e+01 9.9802186235660066e+00 0 0 0
139 1 2.8166318504931094e+00 1.4096033816517167e+01 8.6098929807460642e+00 0 0 0
141 1 2.7808168141803655e+00 1.4213529526091270e+01 1.1425768006090586e+01 0 0 0
140 1 4.2211688496040614e+00 1.5541820372279448e+01 9.9716111668029974e+00 0 0 0
70 1 1.4259318447300129e+00 1.5728029778748262e+01 1.2776271454281732e+01 0 0 0
151 1 5.7419565445582323e+00 1.7122631383122599e+01 8.5761359801746018e+00 0 -1 0
225 1 8.4940883640686060e+00 1.7086240146864643e+01 1.1377940107519986e+01 0 -1 0
200 1 7.1999038551839432e+00 1.2947601210920007e+01 9.9883858236044105e+00 0 0 0
211 1 5.7222179927860379e+00 1.4179887674578335e+01 8.6489229602818032e+00 0 0 0
212 1 7.1605815261666619e+00 1.5688960568821162e+01 9.9716035786819752e+00 0 0 0
213 1 5.6729093853210415e+00 1.4280064498019117e+01 1.1371650966964793e+01 0 0 0
202 1 7.1337762105990548e+00 1.2878809387223477e+01 1.2798364149735901e+01 0 0 0
295 1 1.1359148591362926e+01 1.7098979093054179e+01 8.5678042998730266e+00 0 -1 0
297 1 1.1419915738008912e+01 1.7052670134240046e+01 1.1339031250200627e+01 0 -1 0
358 1 1.2809971299197082e+01 1.5635302662946064e+01 1.2801851967206554e+01 0 0 0
286 1 9.9887508768198074e+00 1.5680026577184170e+01 1.2792628909242785e+01 0 0 0
272 1 9.9896645921152203e+00 1.2875682597653528e+01 1.0042511335277927e+01 0 0 0
284 1 1.0016523520069448e+01 1.5482696960595726e+01 1.0122376263961666e+01 0 0 0
285 1 8.5717424746641644e+00 1.4280306198870120e+01 1.1502142026331803e+01 0 0 0
357 1 1.1451869107332142e+01 1.4160116748942517e+01 1.1401932028167627e+01 0 0 0
356 1 1.2816097475581982e+01 1.5581599055049370e+01 9.9253846070225471e+00 0 0 0
7 1 1.7103917237077411e+01 1.7095735515732159e+01 8.5770261472304998e+00 -1 -1 0
9 1 1.7077960929124988e+01 1.7075557640756113e+01 1.1427059268952872e+01 -1 -1 0
367 1 1.4234276880138180e+01 1.7110583708814730e+01 8.6086266543482246e+00 0 -1 0
418 1 1.5760760113889056e+01 1.2894989119639263e+01 1.2828231052015882e+01 0 0 0
67 1 1.7052737123113708e+01 1.4309285069156060e+01 8.5827367134538193e+00 -1 0 0
69 1 1.7074977621537737e+01 1.4329899972564910e+01 1.1408273806894801e+01 -1 0 0
427 1 1.4258381796479192e+01 1.4198258810568674e+01 8.5749168825156783e+00 0 0 0
428 1 1.5558938283105038e+01 1.5724959231398508e+01 9.9539777955632225e+00 0 0 0
429 1 1.4198322566296461e+01 1.4205949223924559e+01 1.1358735540755820e+01 0 0 0
12 1 1.4095400435883876e+00 1.4546977893865642e+00 1.5785772735878199e+01 0 0 0
83 1 2.8752320577102055e+00 9.6279177333531279e-02 1.4282606125303687e+01 0 0 0
95 1 2.8510895045483604e+00 2.8859139024576006e+00 1.4280947253625596e+01 0 0 0
84 1 4.2763977843049163e+00 1.4251765997548129e+00 1.5668119153306252e+01 0 0 0
22 1 1.4044967663438856e+00 4.2293115656583158e+00 1.2902893311991896e+01 0 0 0
13 1 4.6222410727277237e-02 2.9252512428549120e+00 1.7130081759421561e+01 0 0 -1
82 1 4.3430791318519910e+00 1.4132441102720474e+00 1.2876864250380994e+01 0 0 0
154 1 7.2406537996007403e+00 1.4222940403302176e+00 1.2878467669931981e+01 0 0 0
155 1 5.7554308287671434e+00 1.7400015194170157e-02 1.4309913769746414e+01 0 0 0
156 1 7.0456251252885904e+00 1.4015119588282621e+00 1.5692395878162900e+01 0 0 0
167 1 5.7301773722274332e+00 2.8089254834906279e+00 1.4159409523036830e+01 0 0 0
227 1 8.5450372454789907e+00 3.5867725248678185e-02 1.4275612133795537e+01 0 0 0
145 1 5.8303220580422330e+00 6.0848342862341726e-02 1.7116756720781833e+01 0 0 -1
157 1 5.7278994243342316e+00 2.9992841222234903e+00 1.6966606328420777e+01 0 0 -1
229 1 8.5531090145651234e+00 2.7858042731621282e+00 1.7057246250152996e+01 0 0 -1
228 1 9.9859566182179051e+00 1.4545812255427670e+00 1.5749926469487269e+01 0 0 0
239 1 8.5879384019854079e+00 2.9342237490549330e+00 1.4229043569449942e+01 0 0 0
311 1 1.1481952983512866e+01 2.8342562803441669e+00 1.4225125213077773e+01 0 0 0
298 1 1.2811510887029154e+01 1.4273476119114346e+00 1.2865108907245370e+01 0 0 0
300 1 1.2789534247743751e+01 1.4763329805887417e+00 1.5700496013668305e+01 0 0 0
240 1 1.0085517499367395e+01 4.2585205932288881e+00 1.5750063859812041e+01 0 0 0
217 1 8.7062297202736048e+00 4.1463060830260225e-02 1.7130927477593495e+01 0 0 -1
301 1 1.1361807669590528e+01 2.8813720467435227e+00 1.7054014016489251e+01 0 0 -1
11 1 1.7063596522576319e+01 5.9814028384199219e-02 1.4345192156448297e+01 -1 0 0
23 1 1.7078985285711344e+01 2.7683145309969919e+00 1.4279823637658271e+01 -1 0 0
372 1 1.5594477289642546e+01 1.3897253830527676e+00 1.5694879815470397e+01 0 0 0
383 1 1.4308450231540423e+01 2.7346785569091057e+00 1.4310800874965915e+01 0 0 0
310 1 1.3024043980719975e+01 4.2182652189749321e+00 1.2899634866368473e+01 0 0 0
384 1 1.5726928877483290e+01 4.1716656678006929e+00 1.5672577796352673e+01 0 0 0
24 1 1.4186444447600592e+00 4.2815385204268388e+00 1.5679518796711950e+01 0 0 0
34 1 1.4205188323771119e+00 7.1193037379466295e+00 1.2883150393419694e+01 0 0 0
35 1 9.1003953026347437e-02 5.7509838843129266e+00 1.4280934314702463e+01 0 0 0
36 1 1.4098818262099544e+00 7.1729480647894723e+00 1.5824449116436796e+01 0 0 0
107 1 2.7948839651646922e+00 5.8188507780532577e+00 1.4341574908789152e+01 0 0 0
94 1 4.1634467482816433e+00 4.2985724183894041e+00 1.2931338382720826e+01 0 0 0
106 1 4.1160501887282663e+00 7.2468488968326383e+00 1.2877291871961903e+01 0 0 0
108 1 4.2628558812837518e+00 7.0907770152480190e+00 1.5707854584092326e+01 0 0 0
119 1 2.8564144466523040e+00 8.5634584213400302e+00 1.4310282216009448e+01 0 0 0
25 1 3.5874948912334836e-02 5.6461946705919202e+00 1.7109647660027573e+01 0 0 -1
97 1 2.8108356272355390e+00 5.7414256238763368e+00 1.7137420721897996e+01 0 0 -1
96 1 4.3059904803220430e+00 4.3680467976868425e+00 1.5607181076932939e+01 0 0 0
168 1 7.2137437874237937e+00 4.3914338631277987e+00 1.5663269397017475e+01 0 0 0
178 1 7.1248713334077003e+00 7.1248443317480250e+00 1.2937667703960633e+01 0 0 0
179 1 5.6372187625644923e+00 5.8243899593394985e+00 1.4279896840628226e+01 0 0 0
180 1 7.1299370469895722e+00 7.0654820563781131e+00 1.5806732596893708e+01 0 0 0
263 1 8.5623242178198016e+00 8.4713119711067577e+00 1.4281905431418535e+01 0 0 0
169 1 5.6789922619253694e+00 5.7019281648491305e+00 1.7103811598305764e+01 0 0 -1
238 1 1.0105323136437613e+01 4.3093171080818529e+00 1.2865814825508545e+01 0 0 0
250 1 1.0044044493919531e+01 7.0902584362134551e+00 1.2914630476360049e+01 0 0 0
251 1 8.5853467911215020e+00 5.5941891299076669e+00 1.4258903850662319e+01 0 0 0
252 1 1.0068324047068380e+01 7.1819660611148404e+00 1.5734736275303195e+01 0 0 0
323 1 1.1529818800168902e+01 5.5710581163785351e+00 1.4254425457525125e+01 0 0 0