#  #

432  atoms
1  atom types

0.00000000 17.13180000  xlo xhi
0.00000000 17.13180000  ylo yhi
0.00000000 17.13180000  zlo zhi

Atoms

1   1  0.00000000 0.00000000 0.00000000
2   1  1.42765000 1.42765000 1.42765000
3   1  0.00000000 0.00000000 2.85530000
4   1  1.42765000 1.42765000 4.28295000
5   1  0.00000000 0.00000000 5.71060000
6   1  1.42765000 1.42765000 7.13825000
7   1  0.00000000 0.00000000 8.56590000
8   1  1.42765000 1.42765000 9.99355000
9   1  0.00000000 0.00000000 11.42120000
10   1  1.42765000 1.42765000 12.84885000
11   1  0.00000000 0.00000000 14.27650000
12   1  1.42765000 1.42765000 15.70415000
13   1  0.00000000 2.85530000 0.00000000
14   1  1.42765000 4.28295000 1.42765000
15   1  0.00000000 2.85530000 2.85530000
16   1  1.42765000 4.28295000 4.28295000
17   1  0.00000000 2.85530000 5.71060000
18   1  1.42765000 4.28295000 7.13825000
19   1  0.00000000 2.85530000 8.56590000
20   1  1.42765000 4.28295000 9.99355000
21   1  0.00000000 2.85530000 11.42120000
22   1  1.42765000 4.28295000 12.84885000
23   1  0.00000000 2.85530000 14.27650000
24   1  1.42765000 4.28295000 15.70415000
25   1  0.00000000 5.71060000 0.00000000
26   1  1.42765000 7.13825000 1.42765000
27   1  0.00000000 5.71060000 2.85530000
28   1  1.42765000 7.13825000 4.28295000
29   1  0.00000000 5.71060000 5.71060000
30   1  1.42765000 7.13825000 7.13825000
31   1  0.00000000 5.71060000 8.56590000
32   1  1.42765000 7.13825000 9.99355000
33   1  0.00000000 5.71060000 11.42120000
34   1  1.42765000 7.13825000 12.84885000
35   1  0.00000000 5.71060000 14.27650000
36   1  1.42765000 7.13825000 15.70415000
37   1  0.00000000 8.56590000 0.00000000
38   1  1.42765000 9.99355000 1.42765000
39   1  0.00000000 8.56590000 2.85530000
40   1  1.42765000 9.99355000 4.28295000
41   1  0.00000000 8.56590000 5.71060000
42   1  1.42765000 9.99355000 7.13825000
43   1  0.00000000 8.56590000 8.56590000
44   1  1.42765000 9.99355000 9.99355000
45   1  0.00000000 8.56590000 11.42120000
46   1  1.42765000 9.99355000 12.84885000
47   1  0.00000000 8.56590000 14.27650000
48   1  1.42765000 9.99355000 15.70415000
49   1  0.00000000 11.42120000 0.00000000
50   1  1.42765000 12.84885000 1.42765000
51   1  0.00000000 11.42120000 2.85530000
52   1  1.42765000 12.84885000 4.28295000
53   1  0.00000000 11.42120000 5.71060000
54   1  1.42765000 12.84885000 7.13825000
55   1  0.00000000 11.42120000 8.56590000
56   1  1.42765000 12.84885000 9.99355000
57   1  0.00000000 11.42120000 11.42120000
58   1  1.42765000 12.84885000 12.84885000
59   1  0.00000000 11.42120000 14.27650000
60   1  1.42765000 12.84885000 15.70415000
61   1  0.00000000 14.27650000 0.00000000
62   1  1.42765000 15.70415000 1.42765000
63   1  0.00000000 14.27650000 2.85530000
64   1  1.42765000 15.70415000 4.28295000
65   1  0.00000000 14.27650000 5.71060000
66   1  1.42765000 15.70415000 7.13825000
67   1  0.00000000 14.27650000 8.56590000
68   1  1.42765000 15.70415000 9.99355000
69   1  0.00000000 14.27650000 11.42120000
70   1  1.42765000 15.70415000 12.84885000
71   1  0.00000000 14.27650000 14.27650000
72   1  1.42765000 15.70415000 15.70415000
73   1  2.85530000 0.00000000 0.00000000
74   1  4.28295000 1.42765000 1.42765000
75   1  2.85530000 0.00000000 2.85530000
76   1  4.28295000 1.42765000 4.28295000
77   1  2.85530000 0.00000000 5.71060000
78   1  4.28295000 1.42765000 7.13825000
79   1  2.85530000 0.00000000 8.56590000
80   1  4.28295000 1.42765000 9.99355000
81   1  2.85530000 0.00000000 11.42120000
82   1  4.28295000 1.42765000 12.84885000
83   1  2.85530000 0.00000000 14.27650000
84   1  4.28295000 1.42765000 15.70415000
85   1  2.85530000 2.85530000 0.00000000
86   1  4.28295000 4.28295000 1.42765000
87   1  2.85530000 2.85530000 2.85530000
88   1  4.28295000 4.28295000 4.28295000
89   1  2.85530000 2.85530000 5.71060000
90   1  4.28295000 4.28295000 7.13825000
91   1  2.85530000 2.85530000 8.56590000
92   1  4.28295000 4.28295000 9.99355000
93   1  2.85530000 2.85530000 11.42120000
94   1  4.28295000 4.28295000 12.84885000
95   1  2.85530000 2.85530000 14.27650000
96   1  4.28295000 4.28295000 15.70415000
97   1  2.85530000 5.71060000 0.00000000
98   1  4.28295000 7.13825000 1.42765000
99   1  2.85530000 5.71060000 2.85530000
100   1  4.28295000 7.13825000 4.28295000
101   1  2.85530000 5.71060000 5.71060000
102   1  4.28295000 7.13825000 7.13825000
103   1  2.85530000 5.71060000 8.56590000
104   1  4.28295000 7.13825000 9.99355000
105   1  2.85530000 5.71060000 11.42120000
106   1  4.28295000 7.13825000 12.84885000
107   1  2.85530000 5.71060000 14.27650000
108   1  4.28295000 7.13825000 15.70415000
109   1  2.85530000 8.56590000 0.00000000
110   1  4.28295000 9.99355000 1.42765000
111   1  2.85530000 8.56590000 2.85530000
112   1  4.28295000 9.99355000 4.28295000
113   1  2.85530000 8.56590000 5.71060000
114   1  4.28295000 9.99355000 7.13825000
115   1  2.85530000 8.56590000 8.56590000
116   1  4.28295000 9.99355000 9.99355000
117   1  2.85530000 8.56590000 11.42120000
118   1  4.28295000 9.99355000 12.84885000
119   1  2.85530000 8.56590000 14.27650000
120   1  4.28295000 9.99355000 15.70415000
121   1  2.85530000 11.42120000 0.00000000
122   1  4.28295000 12.84885000 1.42765000
123   1  2.85530000 11.42120000 2.85530000
124   1  4.28295000 12.84885000 4.28295000
125   1  2.85530000 11.42120000 5.71060000
126   1  4.28295000 12.84885000 7.13825000
127   1  2.85530000 11.42120000 8.56590000
128   1  4.28295000 12.84885000 9.99355000
129   1  2.85530000 11.42120000 11.42120000
130   1  4.28295000 12.84885000 12.84885000
131   1  2.85530000 11.42120000 14.27650000
132   1  4.28295000 12.84885000 15.70415000
133   1  2.85530000 14.27650000 0.00000000
134   1  4.28295000 15.70415000 1.42765000
135   1  2.85530000 14.27650000 2.85530000
136   1  4.28295000 15.70415000 4.28295000
137   1  2.85530000 14.27650000 5.71060000
138   1  4.28295000 15.70415000 7.13825000
139   1  2.85530000 14.27650000 8.56590000
140   1  4.28295000 15.70415000 9.99355000
141   1  2.85530000 14.27650000 11.42120000
142   1  4.28295000 15.70415000 12.84885000
143   1  2.85530000 14.27650000 14.27650000
144   1  4.28295000 15.70415000 15.70415000
145   1  5.71060000 0.00000000 0.00000000
146   1  7.13825000 1.42765000 1.42765000
147   1  5.71060000 0.00000000 2.85530000
148   1  7.13825000 1.42765000 4.28295000
149   1  5.71060000 0.00000000 5.71060000
150   1  7.13825000 1.42765000 7.13825000
151   1  5.71060000 0.00000000 8.56590000
152   1  7.13825000 1.42765000 9.99355000
153   1  5.71060000 0.00000000 11.42120000
154   1  7.13825000 1.42765000 12.84885000
155   1  5.71060000 0.00000000 14.27650000
156   1  7.13825000 1.42765000 15.70415000
157   1  5.71060000 2.85530000 0.00000000
158   1  7.13825000 4.28295000 1.42765000
159   1  5.71060000 2.85530000 2.85530000
160   1  7.13825000 4.28295000 4.28295000
161   1  5.71060000 2.85530000 5.71060000
162   1  7.13825000 4.28295000 7.13825000
163   1  5.71060000 2.85530000 8.56590000
164   1  7.13825000 4.28295000 9.99355000
165   1  5.71060000 2.85530000 11.42120000
166   1  7.13825000 4.28295000 12.84885000
167   1  5.71060000 2.85530000 14.27650000
168   1  7.13825000 4.28295000 15.70415000
169   1  5.71060000 5.71060000 0.00000000
170   1  7.13825000 7.13825000 1.42765000
171   1  5.71060000 5.71060000 2.85530000
172   1  7.13825000 7.13825000 4.28295000
173   1  5.71060000 5.71060000 5.71060000
174   1  7.13825000 7.13825000 7.13825000
175   1  5.71060000 5.71060000 8.56590000
176   1  7.13825000 7.13825000 9.99355000
177   1  5.71060000 5.71060000 11.42120000
178   1  7.13825000 7.13825000 12.84885000
179   1  5.71060000 5.71060000 14.27650000
180   1  7.13825000 7.13825000 15.70415000
181   1  5.71060000 8.56590000 0.00000000
182   1  7.13825000 9.99355000 1.42765000
183   1  5.71060000 8.56590000 2.85530000
184   1  7.13825000 9.99355000 4.28295000
185   1  5.71060000 8.56590000 5.71060000
186   1  7.13825000 9.99355000 7.13825000
187   1  5.71060000 8.56590000 8.56590000
188   1  7.13825000 9.99355000 9.99355000
189   1  5.71060000 8.56590000 11.42120000
190   1  7.13825000 9.99355000 12.84885000
191   1  5.71060000 8.56590000 14.27650000
192   1  7.13825000 9.99355000 15.70415000
193   1  5.71060000 11.42120000 0.00000000
194   1  7.13825000 12.84885000 1.42765000
195   1  5.71060000 11.42120000 2.85530000
196   1  7.13825000 12.84885000 4.28295000
197   1  5.71060000 11.42120000 5.71060000
198   1  7.13825000 12.84885000 7.13825000
199   1  5.71060000 11.42120000 8.56590000
200   1  7.13825000 12.84885000 9.99355000
201   1  5.71060000 11.42120000 11.42120000
202   1  7.13825000 12.84885000 12.84885000
203   1  5.71060000 11.42120000 14.27650000
204   1  7.13825000 12.84885000 15.70415000
205   1  5.71060000 14.27650000 0.00000000
206   1  7.13825000 15.70415000 1.42765000
207   1  5.71060000 14.27650000 2.85530000
208   1  7.13825000 15.70415000 4.28295000
209   1  5.71060000 14.27650000 5.71060000
210   1  7.13825000 15.70415000 7.13825000
211   1  5.71060000 14.27650000 8.56590000
212   1  7.13825000 15.70415000 9.99355000
213   1  5.71060000 14.27650000 11.42120000
214   1  7.13825000 15.70415000 12.84885000
215   1  5.71060000 14.27650000 14.27650000
216   1  7.13825000 15.70415000 15.70415000
217   1  8.56590000 0.00000000 0.00000000
218   1  9.99355000 1.42765000 1.42765000
219   1  8.56590000 0.00000000 2.85530000
220   1  9.99355000 1.42765000 4.28295000
221   1  8.56590000 0.00000000 5.71060000
222   1  9.99355000 1.42765000 7.13825000
223   1  8.56590000 0.00000000 8.56590000
224   1  9.99355000 1.42765000 9.99355000
225   1  8.56590000 0.00000000 11.42120000
226   1  9.99355000 1.42765000 12.84885000
227   1  8.56590000 0.00000000 14.27650000
228   1  9.99355000 1.42765000 15.70415000
229   1  8.56590000 2.85530000 0.00000000
230   1  9.99355000 4.28295000 1.42765000
231   1  8.56590000 2.85530000 2.85530000
232   1  9.99355000 4.28295000 4.28295000
233   1  8.56590000 2.85530000 5.71060000
234   1  9.99355000 4.28295000 7.13825000
235   1  8.56590000 2.85530000 8.56590000
236   1  9.99355000 4.28295000 9.99355000
237   1  8.56590000 2.85530000 11.42120000
238   1  9.99355000 4.28295000 12.84885000
239   1  8.56590000 2.85530000 14.27650000
240   1  9.99355000 4.28295000 15.70415000
241   1  8.56590000 5.71060000 0.00000000
242   1  9.99355000 7.13825000 1.42765000
243   1  8.56590000 5.71060000 2.85530000
244   1  9.99355000 7.13825000 4.28295000
245   1  8.56590000 5.71060000 5.71060000
246   1  9.99355000 7.13825000 7.13825000
247   1  8.56590000 5.71060000 8.56590000
248   1  9.99355000 7.13825000 9.99355000
249   1  8.56590000 5.71060000 11.42120000
250   1  9.99355000 7.13825000 12.84885000
251   1  8.56590000 5.71060000 14.27650000
252   1  9.99355000 7.13825000 15.70415000
253   1  8.56590000 8.56590000 0.00000000
254   1  9.99355000 9.99355000 1.42765000
255   1  8.56590000 8.56590000 2.85530000
256   1  9.99355000 9.99355000 4.28295000
257   1  8.56590000 8.56590000 5.71060000
258   1  9.99355000 9.99355000 7.13825000
259   1  8.56590000 8.56590000 8.56590000
260   1  9.99355000 9.99355000 9.99355000
261   1  8.56590000 8.56590000 11.42120000
262   1  9.99355000 9.99355000 12.84885000
263   1  8.56590000 8.56590000 14.27650000
264   1  9.99355000 9.99355000 15.70415000
265   1  8.56590000 11.42120000 0.00000000
266   1  9.99355000 12.84885000 1.42765000
267   1  8.56590000 11.42120000 2.85530000
268   1  9.99355000 12.84885000 4.28295000
269   1  8.56590000 11.42120000 5.71060000
270   1  9.99355000 12.84885000 7.13825000
271   1  8.56590000 11.42120000 8.56590000
272   1  9.99355000 12.84885000 9.99355000
273   1  8.56590000 11.42120000 11.42120000
274   1  9.99355000 12.84885000 12.84885000
275   1  8.56590000 11.42120000 14.27650000
276   1  9.99355000 12.84885000 15.70415000
277   1  8.56590000 14.27650000 0.00000000
278   1  9.99355000 15.70415000 1.42765000
279   1  8.56590000 14.27650000 2.85530000
280   1  9.99355000 15.70415000 4.28295000
281   1  8.56590000 14.27650000 5.71060000
282   1  9.99355000 15.70415000 7.13825000
283   1  8.56590000 14.27650000 8.56590000
284   1  9.99355000 15.70415000 9.99355000
285   1  8.56590000 14.27650000 11.42120000
286   1  9.99355000 15.70415000 12.84885000
287   1  8.56590000 14.27650000 14.27650000
288   1  9.99355000 15.70415000 15.70415000
289   1  11.42120000 0.00000000 0.00000000
290   1  12.84885000 1.42765000 1.42765000
291   1  11.42120000 0.00000000 2.85530000
292   1  12.84885000 1.42765000 4.28295000
293   1  11.42120000 0.00000000 5.71060000
294   1  12.84885000 1.42765000 7.13825000
295   1  11.42120000 0.00000000 8.56590000
296   1  12.84885000 1.42765000 9.99355000
297   1  11.42120000 0.00000000 11.42120000
298   1  12.84885000 1.42765000 12.84885000
299   1  11.42120000 0.00000000 14.27650000
300   1  12.84885000 1.42765000 15.70415000
301   1  11.42120000 2.85530000 0.00000000
302   1  12.84885000 4.28295000 1.42765000
303   1  11.42120000 2.85530000 2.85530000
304   1  12.84885000 4.28295000 4.28295000
305   1  11.42120000 2.85530000 5.71060000
306   1  12.84885000 4.28295000 7.13825000
307   1  11.42120000 2.85530000 8.56590000
308   1  12.84885000 4.28295000 9.99355000
309   1  11.42120000 2.85530000 11.42120000
310   1  12.84885000 4.28295000 12.84885000
311   1  11.42120000 2.85530000 14.27650000
312   1  12.84885000 4.28295000 15.70415000
313   1  11.42120000 5.71060000 0.00000000
314   1  12.84885000 7.13825000 1.42765000
315   1  11.42120000 5.71060000 2.85530000
316   1  12.84885000 7.13825000 4.28295000
317   1  11.42120000 5.71060000 5.71060000
318   1  12.84885000 7.13825000 7.13825000
319   1  11.42120000 5.71060000 8.56590000
320   1  12.84885000 7.13825000 9.99355000
321   1  11.42120000 5.71060000 11.42120000
322   1  12.84885000 7.13825000 12.84885000
323   1  11.42120000 5.71060000 14.27650000
324   1  12.84885000 7.13825000 15.70415000
325   1  11.42120000 8.56590000 0.00000000
326   1  12.84885000 9.99355000 1.42765000
327   1  11.42120000 8.56590000 2.85530000
328   1  12.84885000 9.99355000 4.28295000
329   1  11.42120000 8.56590000 5.71060000
330   1  12.84885000 9.99355000 7.13825000
331   1  11.42120000 8.56590000 8.56590000
332   1  12.84885000 9.99355000 9.99355000
333   1  11.42120000 8.56590000 11.42120000
334   1  12.84885000 9.99355000 12.84885000
335   1  11.42120000 8.56590000 14.27650000
336   1  12.84885000 9.99355000 15.70415000
337   1  11.42120000 11.42120000 0.00000000
338   1  12.84885000 12.84885000 1.42765000
339   1  11.42120000 11.42120000 2.85530000
340   1  12.84885000 12.84885000 4.28295000
341   1  11.42120000 11.42120000 5.71060000
342   1  12.84885000 12.84885000 7.13825000
343   1  11.42120000 11.42120000 8.56590000
344   1  12.84885000 12.84885000 9.99355000
345   1  11.42120000 11.42120000 11.42120000
346   1  12.84885000 12.84885000 12.84885000
347   1  11.42120000 11.42120000 14.27650000
348   1  12.84885000 12.84885000 15.70415000
349   1  11.42120000 14.27650000 0.00000000
350   1  12.84885000 15.70415000 1.42765000
351   1  11.42120000 14.27650000 2.85530000
352   1  12.84885000 15.70415000 4.28295000
353   1  11.42120000 14.27650000 5.71060000
354   1  12.84885000 15.70415000 7.13825000
355   1  11.42120000 14.27650000 8.56590000
356   1  12.84885000 15.70415000 9.99355000
357   1  11.42120000 14.27650000 11.42120000
358   1  12.84885000 15.70415000 12.84885000
359   1  11.42120000 14.27650000 14.27650000
360   1  12.84885000 15.70415000 15.70415000
361   1  14.27650000 0.00000000 0.00000000
362   1  15.70415000 1.42765000 1.42765000
363   1  14.27650000 0.00000000 2.85530000
364   1  15.70415000 1.42765000 4.28295000
365   1  14.27650000 0.00000000 5.71060000
366   1  15.70415000 1.42765000 7.13825000
367   1  14.27650000 0.00000000 8.56590000
368   1  15.70415000 1.42765000 9.99355000
369   1  14.27650000 0.00000000 11.42120000
370   1  15.70415000 1.42765000 12.84885000
371   1  14.27650000 0.00000000 14.27650000
372   1  15.70415000 1.42765000 15.70415000
373   1  14.27650000 2.85530000 0.00000000
374   1  15.70415000 4.28295000 1.42765000
375   1  14.27650000 2.85530000 2.85530000
376   1  15.70415000 4.28295000 4.28295000
377   1  14.27650000 2.85530000 5.71060000
378   1  15.70415000 4.28295000 7.13825000
379   1  14.27650000 2.85530000 8.56590000
380   1  15.70415000 4.28295000 9.99355000
381   1  14.27650000 2.85530000 11.42120000
382   1  15.70415000 4.28295000 12.84885000
383   1  14.27650000 2.85530000 14.27650000
384   1  15.70415000 4.28295000 15.70415000
385   1  14.27650000 5.71060000 0.00000000
386   1  15.70415000 7.13825000 1.42765000
387   1  14.27650000 5.71060000 2.85530000
388   1  15.70415000 7.13825000 4.28295000
389   1  14.27650000 5.71060000 5.71060000
390   1  15.70415000 7.13825000 7.13825000
391   1  14.27650000 5.71060000 8.56590000
392   1  15.70415000 7.13825000 9.99355000
393   1  14.27650000 5.71060000 11.42120000
394   1  15.70415000 7.13825000 12.84885000
395   1  14.27650000 5.71060000 14.27650000
396   1  15.70415000 7.13825000 15.70415000
397   1  14.27650000 8.56590000 0.00000000
398   1  15.70415000 9.99355000 1.42765000
399   1  14.27650000 8.56590000 2.85530000
400   1  15.70415000 9.99355000 4.28295000
401   1  14.27650000 8.56590000 5.71060000
402   1  15.70415000 9.99355000 7.13825000
403   1  14.27650000 8.56590000 8.56590000
404   1  15.70415000 9.99355000 9.99355000
405   1  14.27650000 8.56590000 11.42120000
406   1  15.70415000 9.99355000 12.84885000
407   1  14.27650000 8.56590000 14.27650000
408   1  15.70415000 9.99355000 15.70415000
409   1  14.27650000 11.42120000 0.00000000
410   1  15.70415000 12.84885000 1.42765000
411   1  14.27650000 11.42120000 2.85530000
412   1  15.70415000 12.84885000 4.28295000
413   1  14.27650000 11.42120000 5.71060000
414   1  15.70415000 12.84885000 7.13825000
415   1  14.27650000 11.42120000 8.56590000
416   1  15.70415000 12.84885000 9.99355000
417   1  14.27650000 11.42120000 11.42120000
418   1  15.70415000 12.84885000 12.84885000
419   1  14.27650000 11.42120000 14.27650000
420   1  15.70415000 12.84885000 15.70415000
421   1  14.27650000 14.27650000 0.00000000
422   1  15.70415000 15.70415000 1.42765000
423   1  14.27650000 14.27650000 2.85530000
424   1  15.70415000 15.70415000 4.28295000
425   1  14.27650000 14.27650000 5.71060000
426   1  15.70415000 15.70415000 7.13825000
427   1  14.27650000 14.27650000 8.56590000
428   1  15.70415000 15.70415000 9.99355000
429   1  14.27650000 14.27650000 11.42120000
430   1  15.70415000 15.70415000 12.84885000
431   1  14.27650000 14.27650000 14.27650000
432   1  15.70415000 15.70415000 15.70415000
