#  #

864  atoms
1  atom types

0.00000000 21.83417880  xlo xhi
0.00000000 21.83417880  ylo yhi
0.00000000 21.83417880  zlo zhi

Atoms

1   1  0.00000000 0.00000000 0.00000000
2   1  1.81951490 1.81951490 0.00000000
3   1  1.81951490 0.00000000 1.81951490
4   1  0.00000000 1.81951490 1.81951490
5   1  0.00000000 0.00000000 3.63902980
6   1  1.81951490 1.81951490 3.63902980
7   1  1.81951490 0.00000000 5.45854470
8   1  0.00000000 1.81951490 5.45854470
9   1  0.00000000 0.00000000 7.27805960
10   1  1.81951490 1.81951490 7.27805960
11   1  1.81951490 0.00000000 9.09757450
12   1  0.00000000 1.81951490 9.09757450
13   1  0.00000000 0.00000000 10.91708940
14   1  1.81951490 1.81951490 10.91708940
15   1  1.81951490 0.00000000 12.73660430
16   1  0.00000000 1.81951490 12.73660430
17   1  0.00000000 0.00000000 14.55611920
18   1  1.81951490 1.81951490 14.55611920
19   1  1.81951490 0.00000000 16.37563410
20   1  0.00000000 1.81951490 16.37563410
21   1  0.00000000 0.00000000 18.19514900
22   1  1.81951490 1.81951490 18.19514900
23   1  1.81951490 0.00000000 20.01466390
24   1  0.00000000 1.81951490 20.01466390
25   1  0.00000000 3.63902980 0.00000000
26   1  1.81951490 5.45854470 0.00000000
27   1  1.81951490 3.63902980 1.81951490
28   1  0.00000000 5.45854470 1.81951490
29   1  0.00000000 3.63902980 3.63902980
30   1  1.81951490 5.45854470 3.63902980
31   1  1.81951490 3.63902980 5.45854470
32   1  0.00000000 5.45854470 5.45854470
33   1  0.00000000 3.63902980 7.27805960
34   1  1.81951490 5.45854470 7.27805960
35   1  1.81951490 3.63902980 9.09757450
36   1  0.00000000 5.45854470 9.09757450
37   1  0.00000000 3.63902980 10.91708940
38   1  1.81951490 5.45854470 10.91708940
39   1  1.81951490 3.63902980 12.73660430
40   1  0.00000000 5.45854470 12.73660430
41   1  0.00000000 3.63902980 14.55611920
42   1  1.81951490 5.45854470 14.55611920
43   1  1.81951490 3.63902980 16.37563410
44   1  0.00000000 5.45854470 16.37563410
45   1  0.00000000 3.63902980 18.19514900
46   1  1.81951490 5.45854470 18.19514900
47   1  1.81951490 3.63902980 20.01466390
48   1  0.00000000 5.45854470 20.01466390
49   1  0.00000000 7.27805960 0.00000000
50   1  1.81951490 9.09757450 0.00000000
51   1  1.81951490 7.27805960 1.81951490
52   1  0.00000000 9.09757450 1.81951490
53   1  0.00000000 7.27805960 3.63902980
54   1  1.81951490 9.09757450 3.63902980
55   1  1.81951490 7.27805960 5.45854470
56   1  0.00000000 9.09757450 5.45854470
57   1  0.00000000 7.27805960 7.27805960
58   1  1.81951490 9.09757450 7.27805960
59   1  1.81951490 7.27805960 9.09757450
60   1  0.00000000 9.09757450 9.09757450
61   1  0.00000000 7.27805960 10.91708940
62   1  1.81951490 9.09757450 10.91708940
63   1  1.81951490 7.27805960 12.73660430
64   1  0.00000000 9.09757450 12.73660430
65   1  0.00000000 7.27805960 14.55611920
66   1  1.81951490 9.09757450 14.55611920
67   1  1.81951490 7.27805960 16.37563410
68   1  0.00000000 9.09757450 16.37563410
69   1  0.00000000 7.27805960 18.19514900
70   1  1.81951490 9.09757450 18.19514900
71   1  1.81951490 7.27805960 20.01466390
72   1  0.00000000 9.09757450 20.01466390
73   1  0.00000000 10.91708940 0.00000000
74   1  1.81951490 12.73660430 0.00000000
75   1  1.81951490 10.91708940 1.81951490
76   1  0.00000000 12.73660430 1.81951490
77   1  0.00000000 10.91708940 3.63902980
78   1  1.81951490 12.73660430 3.63902980
79   1  1.81951490 10.91708940 5.45854470
80   1  0.00000000 12.73660430 5.45854470
81   1  0.00000000 10.91708940 7.27805960
82   1  1.81951490 12.73660430 7.27805960
83   1  1.81951490 10.91708940 9.09757450
84   1  0.00000000 12.73660430 9.09757450
85   1  0.00000000 10.91708940 10.91708940
86   1  1.81951490 12.73660430 10.91708940
87   1  1.81951490 10.91708940 12.73660430
88   1  0.00000000 12.73660430 12.73660430
89   1  0.00000000 10.91708940 14.55611920
90   1  1.81951490 12.73660430 14.55611920
91   1  1.81951490 10.91708940 16.37563410
92   1  0.00000000 12.73660430 16.37563410
93   1  0.00000000 10.91708940 18.19514900
94   1  1.81951490 12.73660430 18.19514900
95   1  1.81951490 10.91708940 20.01466390
96   1  0.00000000 12.73660430 20.01466390
97   1  0.00000000 14.55611920 0.00000000
98   1  1.81951490 16.37563410 0.00000000
99   1  1.81951490 14.55611920 1.81951490
100   1  0.00000000 16.37563410 1.81951490
101   1  0.00000000 14.55611920 3.63902980
102   1  1.81951490 16.37563410 3.63902980
103   1  1.81951490 14.55611920 5.45854470
104   1  0.00000000 16.37563410 5.45854470
105   1  0.00000000 14.55611920 7.27805960
106   1  1.81951490 16.37563410 7.27805960
107   1  1.81951490 14.55611920 9.09757450
108   1  0.00000000 16.37563410 9.09757450
109   1  0.00000000 14.55611920 10.91708940
110   1  1.81951490 16.37563410 10.91708940
111   1  1.81951490 14.55611920 12.73660430
112   1  0.00000000 16.37563410 12.73660430
113   1  0.00000000 14.55611920 14.55611920
114   1  1.81951490 16.37563410 14.55611920
115   1  1.81951490 14.55611920 16.37563410
116   1  0.00000000 16.37563410 16.37563410
117   1  0.00000000 14.55611920 18.19514900
118   1  1.81951490 16.37563410 18.19514900
119   1  1.81951490 14.55611920 20.01466390
120   1  0.00000000 16.37563410 20.01466390
121   1  0.00000000 18.19514900 0.00000000
122   1  1.81951490 20.01466390 0.00000000
123   1  1.81951490 18.19514900 1.81951490
124   1  0.00000000 20.01466390 1.81951490
125   1  0.00000000 18.19514900 3.63902980
126   1  1.81951490 20.01466390 3.63902980
127   1  1.81951490 18.19514900 5.45854470
128   1  0.00000000 20.01466390 5.45854470
129   1  0.00000000 18.19514900 7.27805960
130   1  1.81951490 20.01466390 7.27805960
131   1  1.81951490 18.19514900 9.09757450
132   1  0.00000000 20.01466390 9.09757450
133   1  0.00000000 18.19514900 10.91708940
134   1  1.81951490 20.01466390 10.91708940
135   1  1.81951490 18.19514900 12.73660430
136   1  0.00000000 20.01466390 12.73660430
137   1  0.00000000 18.19514900 14.55611920
138   1  1.81951490 20.01466390 14.55611920
139   1  1.81951490 18.19514900 16.37563410
140   1  0.00000000 20.01466390 16.37563410
141   1  0.00000000 18.19514900 18.19514900
142   1  1.81951490 20.01466390 18.19514900
143   1  1.81951490 18.19514900 20.01466390
144   1  0.00000000 20.01466390 20.01466390
145   1  3.63902980 0.00000000 0.00000000
146   1  5.45854470 1.81951490 0.00000000
147   1  5.45854470 0.00000000 1.81951490
148   1  3.63902980 1.81951490 1.81951490
149   1  3.63902980 0.00000000 3.63902980
150   1  5.45854470 1.81951490 3.63902980
151   1  5.45854470 0.00000000 5.45854470
152   1  3.63902980 1.81951490 5.45854470
153   1  3.63902980 0.00000000 7.27805960
154   1  5.45854470 1.81951490 7.27805960
155   1  5.45854470 0.00000000 9.09757450
156   1  3.63902980 1.81951490 9.09757450
157   1  3.63902980 0.00000000 10.91708940
158   1  5.45854470 1.81951490 10.91708940
159   1  5.45854470 0.00000000 12.73660430
160   1  3.63902980 1.81951490 12.73660430
161   1  3.63902980 0.00000000 14.55611920
162   1  5.45854470 1.81951490 14.55611920
163   1  5.45854470 0.00000000 16.37563410
164   1  3.63902980 1.81951490 16.37563410
165   1  3.63902980 0.00000000 18.19514900
166   1  5.45854470 1.81951490 18.19514900
167   1  5.45854470 0.00000000 20.01466390
168   1  3.63902980 1.81951490 20.01466390
169   1  3.63902980 3.63902980 0.00000000
170   1  5.45854470 5.45854470 0.00000000
171   1  5.45854470 3.63902980 1.81951490
172   1  3.63902980 5.45854470 1.81951490
173   1  3.63902980 3.63902980 3.63902980
174   1  5.45854470 5.45854470 3.63902980
175   1  5.45854470 3.63902980 5.45854470
176   1  3.63902980 5.45854470 5.45854470
177   1  3.63902980 3.63902980 7.27805960
178   1  5.45854470 5.45854470 7.27805960
179   1  5.45854470 3.63902980 9.09757450
180   1  3.63902980 5.45854470 9.09757450
181   1  3.63902980 3.63902980 10.91708940
182   1  5.45854470 5.45854470 10.91708940
183   1  5.45854470 3.63902980 12.73660430
184   1  3.63902980 5.45854470 12.73660430
185   1  3.63902980 3.63902980 14.55611920
186   1  5.45854470 5.45854470 14.55611920
187   1  5.45854470 3.63902980 16.37563410
188   1  3.63902980 5.45854470 16.37563410
189   1  3.63902980 3.63902980 18.19514900
190   1  5.45854470 5.45854470 18.19514900
191   1  5.45854470 3.63902980 20.01466390
192   1  3.63902980 5.45854470 20.01466390
193   1  3.63902980 7.27805960 0.00000000
194   1  5.45854470 9.09757450 0.00000000
195   1  5.45854470 7.27805960 1.81951490
196   1  3.63902980 9.09757450 1.81951490
197   1  3.63902980 7.27805960 3.63902980
198   1  5.45854470 9.09757450 3.63902980
199   1  5.45854470 7.27805960 5.45854470
200   1  3.63902980 9.09757450 5.45854470
201   1  3.63902980 7.27805960 7.27805960
202   1  5.45854470 9.09757450 7.27805960
203   1  5.45854470 7.27805960 9.09757450
204   1  3.63902980 9.09757450 9.09757450
205   1  3.63902980 7.27805960 10.91708940
206   1  5.45854470 9.09757450 10.91708940
207   1  5.45854470 7.27805960 12.73660430
208   1  3.63902980 9.09757450 12.73660430
209   1  3.63902980 7.27805960 14.55611920
210   1  5.45854470 9.09757450 14.55611920
211   1  5.45854470 7.27805960 16.37563410
212   1  3.63902980 9.09757450 16.37563410
213   1  3.63902980 7.27805960 18.19514900
214   1  5.45854470 9.09757450 18.19514900
215   1  5.45854470 7.27805960 20.01466390
216   1  3.63902980 9.09757450 20.01466390
217   1  3.63902980 10.91708940 0.00000000
218   1  5.45854470 12.73660430 0.00000000
219   1  5.45854470 10.91708940 1.81951490
220   1  3.63902980 12.73660430 1.81951490
221   1  3.63902980 10.91708940 3.63902980
222   1  5.45854470 12.73660430 3.63902980
223   1  5.45854470 10.91708940 5.45854470
224   1  3.63902980 12.73660430 5.45854470
225   1  3.63902980 10.91708940 7.27805960
226   1  5.45854470 12.73660430 7.27805960
227   1  5.45854470 10.91708940 9.09757450
228   1  3.63902980 12.73660430 9.09757450
229   1  3.63902980 10.91708940 10.91708940
230   1  5.45854470 12.73660430 10.91708940
231   1  5.45854470 10.91708940 12.73660430
232   1  3.63902980 12.73660430 12.73660430
233   1  3.63902980 10.91708940 14.55611920
234   1  5.45854470 12.73660430 14.55611920
235   1  5.45854470 10.91708940 16.37563410
236   1  3.63902980 12.73660430 16.37563410
237   1  3.63902980 10.91708940 18.19514900
238   1  5.45854470 12.73660430 18.19514900
239   1  5.45854470 10.91708940 20.01466390
240   1  3.63902980 12.73660430 20.01466390
241   1  3.63902980 14.55611920 0.00000000
242   1  5.45854470 16.37563410 0.00000000
243   1  5.45854470 14.55611920 1.81951490
244   1  3.63902980 16.37563410 1.81951490
245   1  3.63902980 14.55611920 3.63902980
246   1  5.45854470 16.37563410 3.63902980
247   1  5.45854470 14.55611920 5.45854470
248   1  3.63902980 16.37563410 5.45854470
249   1  3.63902980 14.55611920 7.27805960
250   1  5.45854470 16.37563410 7.27805960
251   1  5.45854470 14.55611920 9.09757450
252   1  3.63902980 16.37563410 9.09757450
253   1  3.63902980 14.55611920 10.91708940
254   1  5.45854470 16.37563410 10.91708940
255   1  5.45854470 14.55611920 12.73660430
256   1  3.63902980 16.37563410 12.73660430
257   1  3.63902980 14.55611920 14.55611920
258   1  5.45854470 16.37563410 14.55611920
259   1  5.45854470 14.55611920 16.37563410
260   1  3.63902980 16.37563410 16.37563410
261   1  3.63902980 14.55611920 18.19514900
262   1  5.45854470 16.37563410 18.19514900
263   1  5.45854470 14.55611920 20.01466390
264   1  3.63902980 16.37563410 20.01466390
265   1  3.63902980 18.19514900 0.00000000
266   1  5.45854470 20.01466390 0.00000000
267   1  5.45854470 18.19514900 1.81951490
268   1  3.63902980 20.01466390 1.81951490
269   1  3.63902980 18.19514900 3.63902980
270   1  5.45854470 20.01466390 3.63902980
271   1  5.45854470 18.19514900 5.45854470
272   1  3.63902980 20.01466390 5.45854470
273   1  3.63902980 18.19514900 7.27805960
274   1  5.45854470 20.01466390 7.27805960
275   1  5.45854470 18.19514900 9.09757450
276   1  3.63902980 20.01466390 9.09757450
277   1  3.63902980 18.19514900 10.91708940
278   1  5.45854470 20.01466390 10.91708940
279   1  5.45854470 18.19514900 12.73660430
280   1  3.63902980 20.01466390 12.73660430
281   1  3.63902980 18.19514900 14.55611920
282   1  5.45854470 20.01466390 14.55611920
283   1  5.45854470 18.19514900 16.37563410
284   1  3.63902980 20.01466390 16.37563410
285   1  3.63902980 18.19514900 18.19514900
286   1  5.45854470 20.01466390 18.19514900
287   1  5.45854470 18.19514900 20.01466390
288   1  3.63902980 20.01466390 20.01466390
289   1  7.27805960 0.00000000 0.00000000
290   1  9.09757450 1.81951490 0.00000000
291   1  9.09757450 0.00000000 1.81951490
292   1  7.27805960 1.81951490 1.81951490
293   1  7.27805960 0.00000000 3.63902980
294   1  9.09757450 1.81951490 3.63902980
295   1  9.09757450 0.00000000 5.45854470
296   1  7.27805960 1.81951490 5.45854470
297   1  7.27805960 0.00000000 7.27805960
298   1  9.09757450 1.81951490 7.27805960
299   1  9.09757450 0.00000000 9.09757450
300   1  7.27805960 1.81951490 9.09757450
301   1  7.27805960 0.00000000 10.91708940
302   1  9.09757450 1.81951490 10.91708940
303   1  9.09757450 0.00000000 12.73660430
304   1  7.27805960 1.81951490 12.73660430
305   1  7.27805960 0.00000000 14.55611920
306   1  9.09757450 1.81951490 14.55611920
307   1  9.09757450 0.00000000 16.37563410
308   1  7.27805960 1.81951490 16.37563410
309   1  7.27805960 0.00000000 18.19514900
310   1  9.09757450 1.81951490 18.19514900
311   1  9.09757450 0.00000000 20.01466390
312   1  7.27805960 1.81951490 20.01466390
313   1  7.27805960 3.63902980 0.00000000
314   1  9.09757450 5.45854470 0.00000000
315   1  9.09757450 3.63902980 1.81951490
316   1  7.27805960 5.45854470 1.81951490
317   1  7.27805960 3.63902980 3.63902980
318   1  9.09757450 5.45854470 3.63902980
319   1  9.09757450 3.63902980 5.45854470
320   1  7.27805960 5.45854470 5.45854470
321   1  7.27805960 3.63902980 7.27805960
322   1  9.09757450 5.45854470 7.27805960
323   1  9.09757450 3.63902980 9.09757450
324   1  7.27805960 5.45854470 9.09757450
325   1  7.27805960 3.63902980 10.91708940
326   1  9.09757450 5.45854470 10.91708940
327   1  9.09757450 3.63902980 12.73660430
328   1  7.27805960 5.45854470 12.73660430
329   1  7.27805960 3.63902980 14.55611920
330   1  9.09757450 5.45854470 14.55611920
331   1  9.09757450 3.63902980 16.37563410
332   1  7.27805960 5.45854470 16.37563410
333   1  7.27805960 3.63902980 18.19514900
334   1  9.09757450 5.45854470 18.19514900
335   1  9.09757450 3.63902980 20.01466390
336   1  7.27805960 5.45854470 20.01466390
337   1  7.27805960 7.27805960 0.00000000
338   1  9.09757450 9.09757450 0.00000000
339   1  9.09757450 7.27805960 1.81951490
340   1  7.27805960 9.09757450 1.81951490
341   1  7.27805960 7.27805960 3.63902980
342   1  9.09757450 9.09757450 3.63902980
343   1  9.09757450 7.27805960 5.45854470
344   1  7.27805960 9.09757450 5.45854470
345   1  7.27805960 7.27805960 7.27805960
346   1  9.09757450 9.09757450 7.27805960
347   1  9.09757450 7.27805960 9.09757450
348   1  7.27805960 9.09757450 9.09757450
349   1  7.27805960 7.27805960 10.91708940
350   1  9.09757450 9.09757450 10.91708940
351   1  9.09757450 7.27805960 12.73660430
352   1  7.27805960 9.09757450 12.73660430
353   1  7.27805960 7.27805960 14.55611920
354   1  9.09757450 9.09757450 14.55611920
355   1  9.09757450 7.27805960 16.37563410
356   1  7.27805960 9.09757450 16.37563410
357   1  7.27805960 7.27805960 18.19514900
358   1  9.09757450 9.09757450 18.19514900
359   1  9.09757450 7.27805960 20.01466390
360   1  7.27805960 9.09757450 20.01466390
361   1  7.27805960 10.91708940 0.00000000
362   1  9.09757450 12.73660430 0.00000000
363   1  9.09757450 10.91708940 1.81951490
364   1  7.27805960 12.73660430 1.81951490
365   1  7.27805960 10.91708940 3.63902980
366   1  9.09757450 12.73660430 3.63902980
367   1  9.09757450 10.91708940 5.45854470
368   1  7.27805960 12.73660430 5.45854470
369   1  7.27805960 10.91708940 7.27805960
370   1  9.09757450 12.73660430 7.27805960
371   1  9.09757450 10.91708940 9.09757450
372   1  7.27805960 12.73660430 9.09757450
373   1  7.27805960 10.91708940 10.91708940
374   1  9.09757450 12.73660430 10.91708940
375   1  9.09757450 10.91708940 12.73660430
376   1  7.27805960 12.73660430 12.73660430
377   1  7.27805960 10.91708940 14.55611920
378   1  9.09757450 12.73660430 14.55611920
379   1  9.09757450 10.91708940 16.37563410
380   1  7.27805960 12.73660430 16.37563410
381   1  7.27805960 10.91708940 18.19514900
382   1  9.09757450 12.73660430 18.19514900
383   1  9.09757450 10.91708940 20.01466390
384   1  7.27805960 12.73660430 20.01466390
385   1  7.27805960 14.55611920 0.00000000
386   1  9.09757450 16.37563410 0.00000000
387   1  9.09757450 14.55611920 1.81951490
388   1  7.27805960 16.37563410 1.81951490
389   1  7.27805960 14.55611920 3.63902980
390   1  9.09757450 16.37563410 3.63902980
391   1  9.09757450 14.55611920 5.45854470
392   1  7.27805960 16.37563410 5.45854470
393   1  7.27805960 14.55611920 7.27805960
394   1  9.09757450 16.37563410 7.27805960
395   1  9.09757450 14.55611920 9.09757450
396   1  7.27805960 16.37563410 9.09757450
397   1  7.27805960 14.55611920 10.91708940
398   1  9.09757450 16.37563410 10.91708940
399   1  9.09757450 14.55611920 12.73660430
400   1  7.27805960 16.37563410 12.73660430
401   1  7.27805960 14.55611920 14.55611920
402   1  9.09757450 16.37563410 14.55611920
403   1  9.09757450 14.55611920 16.37563410
404   1  7.27805960 16.37563410 16.37563410
405   1  7.27805960 14.55611920 18.19514900
406   1  9.09757450 16.37563410 18.19514900
407   1  9.09757450 14.55611920 20.01466390
408   1  7.27805960 16.37563410 20.01466390
409   1  7.27805960 18.19514900 0.00000000
410   1  9.09757450 20.01466390 0.00000000
411   1  9.09757450 18.19514900 1.81951490
412   1  7.27805960 20.01466390 1.81951490
413   1  7.27805960 18.19514900 3.63902980
414   1  9.09757450 20.01466390 3.63902980
415   1  9.09757450 18.19514900 5.45854470
416   1  7.27805960 20.01466390 5.45854470
417   1  7.27805960 18.19514900 7.27805960
418   1  9.09757450 20.01466390 7.27805960
419   1  9.09757450 18.19514900 9.09757450
420   1  7.27805960 20.01466390 9.09757450
421   1  7.27805960 18.19514900 10.91708940
422   1  9.09757450 20.01466390 10.91708940
423   1  9.09757450 18.19514900 12.73660430
424   1  7.27805960 20.01466390 12.73660430
425   1  7.27805960 18.19514900 14.55611920
426   1  9.09757450 20.01466390 14.55611920
427   1  9.09757450 18.19514900 16.37563410
428   1  7.27805960 20.01466390 16.37563410
429   1  7.27805960 18.19514900 18.19514900
430   1  9.09757450 20.01466390 18.19514900
431   1  9.09757450 18.19514900 20.01466390
432   1  7.27805960 20.01466390 20.01466390
433   1  10.91708940 0.00000000 0.00000000
434   1  12.73660430 1.81951490 0.00000000
435   1  12.73660430 0.00000000 1.81951490
436   1  10.91708940 1.81951490 1.81951490
437   1  10.91708940 0.00000000 3.63902980
438   1  12.73660430 1.81951490 3.63902980
439   1  12.73660430 0.00000000 5.45854470
440   1  10.91708940 1.81951490 5.45854470
441   1  10.91708940 0.00000000 7.27805960
442   1  12.73660430 1.81951490 7.27805960
443   1  12.73660430 0.00000000 9.09757450
444   1  10.91708940 1.81951490 9.09757450
445   1  10.91708940 0.00000000 10.91708940
446   1  12.73660430 1.81951490 10.91708940
447   1  12.73660430 0.00000000 12.73660430
448   1  10.91708940 1.81951490 12.73660430
449   1  10.91708940 0.00000000 14.55611920
450   1  12.73660430 1.81951490 14.55611920
451   1  12.73660430 0.00000000 16.37563410
452   1  10.91708940 1.81951490 16.37563410
453   1  10.91708940 0.00000000 18.19514900
454   1  12.73660430 1.81951490 18.19514900
455   1  12.73660430 0.00000000 20.01466390
456   1  10.91708940 1.81951490 20.01466390
457   1  10.91708940 3.63902980 0.00000000
458   1  12.73660430 5.45854470 0.00000000
459   1  12.73660430 3.63902980 1.81951490
460   1  10.91708940 5.45854470 1.81951490
461   1  10.91708940 3.63902980 3.63902980
462   1  12.73660430 5.45854470 3.63902980
463   1  12.73660430 3.63902980 5.45854470
464   1  10.91708940 5.45854470 5.45854470
465   1  10.91708940 3.63902980 7.27805960
466   1  12.73660430 5.45854470 7.27805960
467   1  12.73660430 3.63902980 9.09757450
468   1  10.91708940 5.45854470 9.09757450
469   1  10.91708940 3.63902980 10.91708940
470   1  12.73660430 5.45854470 10.91708940
471   1  12.73660430 3.63902980 12.73660430
472   1  10.91708940 5.45854470 12.73660430
473   1  10.91708940 3.63902980 14.55611920
474   1  12.73660430 5.45854470 14.55611920
475   1  12.73660430 3.63902980 16.37563410
476   1  10.91708940 5.45854470 16.37563410
477   1  10.91708940 3.63902980 18.19514900
478   1  12.73660430 5.45854470 18.19514900
479   1  12.73660430 3.63902980 20.01466390
480   1  10.91708940 5.45854470 20.01466390
481   1  10.91708940 7.27805960 0.00000000
482   1  12.73660430 9.09757450 0.00000000
483   1  12.73660430 7.27805960 1.81951490
484   1  10.91708940 9.09757450 1.81951490
485   1  10.91708940 7.27805960 3.63902980
486   1  12.73660430 9.09757450 3.63902980
487   1  12.73660430 7.27805960 5.45854470
488   1  10.91708940 9.09757450 5.45854470
489   1  10.91708940 7.27805960 7.27805960
490   1  12.73660430 9.09757450 7.27805960
491   1  12.73660430 7.27805960 9.09757450
492   1  10.91708940 9.09757450 9.09757450
493   1  10.91708940 7.27805960 10.91708940
494   1  12.73660430 9.09757450 10.91708940
495   1  12.73660430 7.27805960 12.73660430
496   1  10.91708940 9.09757450 12.73660430
497   1  10.91708940 7.27805960 14.55611920
498   1  12.73660430 9.09757450 14.55611920
499   1  12.73660430 7.27805960 16.37563410
500   1  10.91708940 9.09757450 16.37563410
501   1  10.91708940 7.27805960 18.19514900
502   1  12.73660430 9.09757450 18.19514900
503   1  12.73660430 7.27805960 20.01466390
504   1  10.91708940 9.09757450 20.01466390
505   1  10.91708940 10.91708940 0.00000000
506   1  12.73660430 12.73660430 0.00000000
507   1  12.73660430 10.91708940 1.81951490
508   1  10.91708940 12.73660430 1.81951490
509   1  10.91708940 10.91708940 3.63902980
510   1  12.73660430 12.73660430 3.63902980
511   1  12.73660430 10.91708940 5.45854470
512   1  10.91708940 12.73660430 5.45854470
513   1  10.91708940 10.91708940 7.27805960
514   1  12.73660430 12.73660430 7.27805960
515   1  12.73660430 10.91708940 9.09757450
516   1  10.91708940 12.73660430 9.09757450
517   1  10.91708940 10.91708940 10.91708940
518   1  12.73660430 12.73660430 10.91708940
519   1  12.73660430 10.91708940 12.73660430
520   1  10.91708940 12.73660430 12.73660430
521   1  10.91708940 10.91708940 14.55611920
522   1  12.73660430 12.73660430 14.55611920
523   1  12.73660430 10.91708940 16.37563410
524   1  10.91708940 12.73660430 16.37563410
525   1  10.91708940 10.91708940 18.19514900
526   1  12.73660430 12.73660430 18.19514900
527   1  12.73660430 10.91708940 20.01466390
528   1  10.91708940 12.73660430 20.01466390
529   1  10.91708940 14.55611920 0.00000000
530   1  12.73660430 16.37563410 0.00000000
531   1  12.73660430 14.55611920 1.81951490
532   1  10.91708940 16.37563410 1.81951490
533   1  10.91708940 14.55611920 3.63902980
534   1  12.73660430 16.37563410 3.63902980
535   1  12.73660430 14.55611920 5.45854470
536   1  10.91708940 16.37563410 5.45854470
537   1  10.91708940 14.55611920 7.27805960
538   1  12.73660430 16.37563410 7.27805960
539   1  12.73660430 14.55611920 9.09757450
540   1  10.91708940 16.37563410 9.09757450
541   1  10.91708940 14.55611920 10.91708940
542   1  12.73660430 16.37563410 10.91708940
543   1  12.73660430 14.55611920 12.73660430
544   1  10.91708940 16.37563410 12.73660430
545   1  10.91708940 14.55611920 14.55611920
546   1  12.73660430 16.37563410 14.55611920
547   1  12.73660430 14.55611920 16.37563410
548   1  10.91708940 16.37563410 16.37563410
549   1  10.91708940 14.55611920 18.19514900
550   1  12.73660430 16.37563410 18.19514900
551   1  12.73660430 14.55611920 20.01466390
552   1  10.91708940 16.37563410 20.01466390
553   1  10.91708940 18.19514900 0.00000000
554   1  12.73660430 20.01466390 0.00000000
555   1  12.73660430 18.19514900 1.81951490
556   1  10.91708940 20.01466390 1.81951490
557   1  10.91708940 18.19514900 3.63902980
558   1  12.73660430 20.01466390 3.63902980
559   1  12.73660430 18.19514900 5.45854470
560   1  10.91708940 20.01466390 5.45854470
561   1  10.91708940 18.19514900 7.27805960
562   1  12.73660430 20.01466390 7.27805960
563   1  12.73660430 18.19514900 9.09757450
564   1  10.91708940 20.01466390 9.09757450
565   1  10.91708940 18.19514900 10.91708940
566   1  12.73660430 20.01466390 10.91708940
567   1  12.73660430 18.19514900 12.73660430
568   1  10.91708940 20.01466390 12.73660430
569   1  10.91708940 18.19514900 14.55611920
570   1  12.73660430 20.01466390 14.55611920
571   1  12.73660430 18.19514900 16.37563410
572   1  10.91708940 20.01466390 16.37563410
573   1  10.91708940 18.19514900 18.19514900
574   1  12.73660430 20.01466390 18.19514900
575   1  12.73660430 18.19514900 20.01466390
576   1  10.91708940 20.01466390 20.01466390
577   1  14.55611920 0.00000000 0.00000000
578   1  16.37563410 1.81951490 0.00000000
579   1  16.37563410 0.00000000 1.81951490
580   1  14.55611920 1.81951490 1.81951490
581   1  14.55611920 0.00000000 3.63902980
582   1  16.37563410 1.81951490 3.63902980
583   1  16.37563410 0.00000000 5.45854470
584   1  14.55611920 1.81951490 5.45854470
585   1  14.55611920 0.00000000 7.27805960
586   1  16.37563410 1.81951490 7.27805960
587   1  16.37563410 0.00000000 9.09757450
588   1  14.55611920 1.81951490 9.09757450
589   1  14.55611920 0.00000000 10.91708940
590   1  16.37563410 1.81951490 10.91708940
591   1  16.37563410 0.00000000 12.73660430
592   1  14.55611920 1.81951490 12.73660430
593   1  14.55611920 0.00000000 14.55611920
594   1  16.37563410 1.81951490 14.55611920
595   1  16.37563410 0.00000000 16.37563410
596   1  14.55611920 1.81951490 16.37563410
597   1  14.55611920 0.00000000 18.19514900
598   1  16.37563410 1.81951490 18.19514900
599   1  16.37563410 0.00000000 20.01466390
600   1  14.55611920 1.81951490 20.01466390
601   1  14.55611920 3.63902980 0.00000000
602   1  16.37563410 5.45854470 0.00000000
603   1  16.37563410 3.63902980 1.81951490
604   1  14.55611920 5.45854470 1.81951490
605   1  14.55611920 3.63902980 3.63902980
606   1  16.37563410 5.45854470 3.63902980
607   1  16.37563410 3.63902980 5.45854470
608   1  14.55611920 5.45854470 5.45854470
609   1  14.55611920 3.63902980 7.27805960
610   1  16.37563410 5.45854470 7.27805960
611   1  16.37563410 3.63902980 9.09757450
612   1  14.55611920 5.45854470 9.09757450
613   1  14.55611920 3.63902980 10.91708940
614   1  16.37563410 5.45854470 10.91708940
615   1  16.37563410 3.63902980 12.73660430
616   1  14.55611920 5.45854470 12.73660430
617   1  14.55611920 3.63902980 14.55611920
618   1  16.37563410 5.45854470 14.55611920
619   1  16.37563410 3.63902980 16.37563410
620   1  14.55611920 5.45854470 16.37563410
621   1  14.55611920 3.63902980 18.19514900
622   1  16.37563410 5.45854470 18.19514900
623   1  16.37563410 3.63902980 20.01466390
624   1  14.55611920 5.45854470 20.01466390
625   1  14.55611920 7.27805960 0.00000000
626   1  16.37563410 9.09757450 0.00000000
627   1  16.37563410 7.27805960 1.81951490
628   1  14.55611920 9.09757450 1.81951490
629   1  14.55611920 7.27805960 3.63902980
630   1  16.37563410 9.09757450 3.63902980
631   1  16.37563410 7.27805960 5.45854470
632   1  14.55611920 9.09757450 5.45854470
633   1  14.55611920 7.27805960 7.27805960
634   1  16.37563410 9.09757450 7.27805960
635   1  16.37563410 7.27805960 9.09757450
636   1  14.55611920 9.09757450 9.09757450
637   1  14.55611920 7.27805960 10.91708940
638   1  16.37563410 9.09757450 10.91708940
639   1  16.37563410 7.27805960 12.73660430
640   1  14.55611920 9.09757450 12.73660430
641   1  14.55611920 7.27805960 14.55611920
642   1  16.37563410 9.09757450 14.55611920
643   1  16.37563410 7.27805960 16.37563410
644   1  14.55611920 9.09757450 16.37563410
645   1  14.55611920 7.27805960 18.19514900
646   1  16.37563410 9.09757450 18.19514900
647   1  16.37563410 7.27805960 20.01466390
648   1  14.55611920 9.09757450 20.01466390
649   1  14.55611920 10.91708940 0.00000000
650   1  16.37563410 12.73660430 0.00000000
651   1  16.37563410 10.91708940 1.81951490
652   1  14.55611920 12.73660430 1.81951490
653   1  14.55611920 10.91708940 3.63902980
654   1  16.37563410 12.73660430 3.63902980
655   1  16.37563410 10.91708940 5.45854470
656   1  14.55611920 12.73660430 5.45854470
657   1  14.55611920 10.91708940 7.27805960
658   1  16.37563410 12.73660430 7.27805960
659   1  16.37563410 10.91708940 9.09757450
660   1  14.55611920 12.73660430 9.09757450
661   1  14.55611920 10.91708940 10.91708940
662   1  16.37563410 12.73660430 10.91708940
663   1  16.37563410 10.91708940 12.73660430
664   1  14.55611920 12.73660430 12.73660430
665   1  14.55611920 10.91708940 14.55611920
666   1  16.37563410 12.73660430 14.55611920
667   1  16.37563410 10.91708940 16.37563410
668   1  14.55611920 12.73660430 16.37563410
669   1  14.55611920 10.91708940 18.19514900
670   1  16.37563410 12.73660430 18.19514900
671   1  16.37563410 10.91708940 20.01466390
672   1  14.55611920 12.73660430 20.01466390
673   1  14.55611920 14.55611920 0.00000000
674   1  16.37563410 16.37563410 0.00000000
675   1  16.37563410 14.55611920 1.81951490
676   1  14.55611920 16.37563410 1.81951490
677   1  14.55611920 14.55611920 3.63902980
678   1  16.37563410 16.37563410 3.63902980
679   1  16.37563410 14.55611920 5.45854470
680   1  14.55611920 16.37563410 5.45854470
681   1  14.55611920 14.55611920 7.27805960
682   1  16.37563410 16.37563410 7.27805960
683   1  16.37563410 14.55611920 9.09757450
684   1  14.55611920 16.37563410 9.09757450
685   1  14.55611920 14.55611920 10.91708940
686   1  16.37563410 16.37563410 10.91708940
687   1  16.37563410 14.55611920 12.73660430
688   1  14.55611920 16.37563410 12.73660430
689   1  14.55611920 14.55611920 14.55611920
690   1  16.37563410 16.37563410 14.55611920
691   1  16.37563410 14.55611920 16.37563410