LAMMPS (7 Aug 2019)
OMP_NUM_THREADS environment is not set. Defaulting to 1 thread. (../comm.cpp:93)
  using 1 OpenMP thread(s) per MPI task
The PKA velocity in A/ps, 287.799667325602 0 0
Reading data file ...
  orthogonal box = (0 0 0) to (189.912 158.26 158.26)
  2 by 2 by 2 MPI processor grid
  reading atoms ...
  300000 atoms
  read_data CPU = 0.196337 secs
1 atoms in group PKA
Neighbor list info ...
  update every 1 steps, delay 5 steps, check yes
  max neighbors/atom: 2000, page size: 100000
  master list distance cutoff = 6.6
  ghost atom cutoff = 6.6
  binsize = 3.3, bins = 58 48 48
  1 neighbor lists, perpetual/occasional/extra = 1 0 0
  (1) pair eam/fs, perpetual
      attributes: half, newton on
      pair build: half/bin/atomonly/newton
      stencil: half/bin/3d/newton
      bin: standard
Setting up Verlet run ...
  Unit style    : metal
  Current step  : 0
  Time step     : 0.002
Per MPI rank memory allocation (min/avg/max) = 18.67 | 18.67 | 18.67 Mbytes
Step Temp E_pair E_mol TotEng Press 
       0           15   -2669999.8            0   -2669418.1    130.18372 
Loop time of 4.47035e-06 on 8 procs for 0 steps with 300000 atoms

123.0% CPU use with 8 MPI tasks x 1 OpenMP threads

MPI task timing breakdown:
Section |  min time  |  avg time  |  max time  |%varavg| %total
---------------------------------------------------------------
Pair    | 0          | 0          | 0          |   0.0 |  0.00
Neigh   | 0          | 0          | 0          |   0.0 |  0.00
Comm    | 0          | 0          | 0          |   0.0 |  0.00
Output  | 0          | 0          | 0          |   0.0 |  0.00
Modify  | 0          | 0          | 0          |   0.0 |  0.00
Other   |            | 4.47e-06   |            |       |100.00

Nlocal:    37500 ave 37500 max 37500 min
Histogram: 8 0 0 0 0 0 0 0 0 0
Nghost:    22594 ave 22594 max 22594 min
Histogram: 8 0 0 0 0 0 0 0 0 0
Neighs:    1.2e+06 ave 1.20935e+06 max 1.18974e+06 min
Histogram: 2 0 1 1 0 0 0 2 0 2

Total # of neighbors = 9600000
Ave neighs/atom = 32
Neighbor list builds = 0
Dangerous builds = 0
Setting up Verlet run ...
  Unit style    : metal
  Current step  : 0
  Time step     : 0.002
Per MPI rank memory allocation (min/avg/max) = 18.67 | 18.67 | 18.67 Mbytes
Step Time Dt Time Temp KinEng PotEng TotEng Press 
       0            0        0.002            0           15    581.66871   -2669999.8   -2669418.1    130.18372 
      10         0.02        0.002         0.02    10.119203    392.40158   -2669810.3   -2669417.9    266.80307 
      20         0.04        0.002         0.04    2.8731188    111.41355     -2669529   -2669417.6    445.20451 
      30         0.06        0.002         0.06     3.060412     118.6764   -2669536.4   -2669417.7     383.5615 
      40         0.08        0.002         0.08    7.9529424    308.39852   -2669726.3   -2669417.9    223.46932 
      50          0.1        0.002          0.1    9.7028709     376.2571   -2669794.2   -2669417.9    229.63843 
      60         0.12        0.002         0.12    8.2907794    321.49913   -2669739.3   -2669417.8    338.19777 
      70         0.14        0.002         0.14    7.6969147     298.4703   -2669716.3   -2669417.8    351.41232 
      80         0.16        0.002         0.16    7.4697401    289.66094   -2669707.5   -2669417.9    296.22371 
      90         0.18        0.002         0.18     6.196854    240.30107   -2669658.1   -2669417.8    291.55779 
     100          0.2        0.002          0.2    6.2059184    240.65257   -2669658.4   -2669417.8    306.34486 
Loop time of 5.57061 on 8 procs for 100 steps with 300000 atoms

Performance: 3.102 ns/day, 7.737 hours/ns, 17.951 timesteps/s
99.2% CPU use with 8 MPI tasks x 1 OpenMP threads

MPI task timing breakdown:
Section |  min time  |  avg time  |  max time  |%varavg| %total
---------------------------------------------------------------
Pair    | 5.2899     | 5.3522     | 5.3921     |   1.4 | 96.08
Neigh   | 0          | 0          | 0          |   0.0 |  0.00
Comm    | 0.067676   | 0.10649    | 0.17086    |  10.0 |  1.91
Output  | 0.0011759  | 0.0014736  | 0.0018504  |   0.6 |  0.03
Modify  | 0.054491   | 0.059484   | 0.064294   |   1.4 |  1.07
Other   |            | 0.05094    |            |       |  0.91

Nlocal:    37500 ave 37500 max 37500 min
Histogram: 8 0 0 0 0 0 0 0 0 0
Nghost:    22594 ave 22594 max 22594 min
Histogram: 8 0 0 0 0 0 0 0 0 0
Neighs:    1.2e+06 ave 1.20935e+06 max 1.18974e+06 min
Histogram: 2 0 1 1 0 0 0 2 0 2

Total # of neighbors = 9600000
Ave neighs/atom = 32
Neighbor list builds = 0
Dangerous builds = 0
System init for write_data ...
Setting up Verlet run ...
  Unit style    : metal
  Current step  : 0
  Time step     : 0.002
Per MPI rank memory allocation (min/avg/max) = 23.61 | 23.61 | 23.61 Mbytes
Step Dt Time Temp KinEng PotEng TotEng Press c_kemax c_temax 
       0 0.00034746173          0.2    26.554982    1029.7468   -2669658.4   -2668628.7    483.54059    789.09496     780.1972 
0.20347461730372468081,-2668628.6634892621078,483.30986936902849038,26.642819818330714554,781.20707012455386575,776.29678971485043348
      10 0.00034921369   0.20347462     26.64282     1033.153   -2669661.8   -2668628.7    483.30987    781.20707    776.29679 
0.20696675422575999681,-2668630.8244165615179,553.12147662471340936,23.468680824312954769,636.39752250952960821,699.40471134863582847
      20 0.00038691013   0.20696675    23.468681    910.06649   -2669540.9   -2668630.8    553.12148    636.39752    699.40471 
0.21083585557401657296,-2668628.9767919401638,499.01264029514544518,26.660623354598403267,749.16584716697934709,757.53013303799446021
      30 0.00035502601   0.21083586    26.660623    1033.8434   -2669662.8     -2668629    499.01264    749.16585    757.53013 
0.21438611564361351181,-2668629.3107457654551,501.42554751488398779,26.589149823995050781,728.32964676241624602,747.20778243405163721
      40 0.00036166822   0.21438612     26.58915    1031.0718   -2669660.4   -2668629.3    501.42555    728.32965    747.20778 
0.21800279786974741114,-2668630.5342040508986,537.91599188033455903,25.045692119940188292,643.49156815846765767,697.7395781019010883
      50 0.00037507105    0.2180028    25.045692     971.2197   -2669601.8   -2668630.5    537.91599    643.49157    697.73958 
0.22175350841400048862,-2668628.3245997559279,475.31842540874140468,28.217629283781420213,755.82445265580042815,759.14583386245362817
      60 0.00035502904   0.22175351    28.217629    1094.2208   -2669722.5   -2668628.3    475.31843    755.82445    759.14583 
0.22530379880419490468,-2668627.3062176681124,624.77338542392692489,20.418076118046837308,351.91597482599695468,510.82858874100509183
      70 0.00045661394    0.2253038    20.418076     791.7704   -2669419.1   -2668627.3    624.77339    351.91597    510.82859 
0.22986993816311385164,-2668628.5071161254309,470.31548004393619067,28.904362106698091139,746.88316337758192276,748.46906718842694772
      80 0.00035714783   0.22986994    28.904362    1120.8509   -2669749.4   -2668628.5    470.31548    746.88316    748.46907 
0.23344141642666671466,-2668626.082416433841,633.4622620931372694,20.3911493494886642,236.07974496425509869,403.29417821094267538
      90 0.00052111526   0.23344142    20.391149    790.72624   -2669416.8   -2668626.1    633.46226    236.07974    403.29418 
0.23865256905083087613,-2668631.2652033343911,480.33267933101546987,28.825287944300409748,684.87469383005418422,686.59585655193598086
     100 0.00037296561   0.23865257    28.825288    1117.7845     -2669749   -2668631.3    480.33268    684.87469    686.59586 
0.24238222513085147525,-2668629.7000167984515,605.27757299754114229,22.711836011877561958,332.30240464965584124,448.8964831616134461
     110 0.00053543604   0.24238223    22.711836    880.71763   -2669510.4   -2668629.7    605.27757     332.3024    448.89648 
0.24773658558019323594,-2668632.6777119156905,510.95884540050724354,27.868233262770292669,403.564446958756605,400.94077529009331329
     120 0.00048586755   0.24773659    27.868233     1080.672   -2669713.3   -2668632.7    510.95885    403.56445    400.94078 
0.25259526110330354776,-2668632.4876592424698,582.71030673726613713,25.203954027909677649,361.33548516875021051,378.87719848237162523
     130 0.00051347469   0.25259526    25.203954    977.35677   -2669609.8   -2668632.5    582.71031    361.33549     378.8772 
0.25773000797660672312,-2668632.645563273225,594.78990534697754811,24.85010224553796121,349.30653354873635408,359.44892289701664367
     140 0.00052224103   0.25773001    24.850102    963.63513   -2669596.3   -2668632.6    594.78991    349.30653    359.44892 
0.2629524183041810903,-2668632.153331163805,610.46669965412138481,23.836904636057127505,288.04096829074228481,313.70003726133239752
     150 0.00057510509   0.26295242    23.836905    924.34544   -2669556.5   -2668632.2     610.4667    288.04097    313.70004 
0.26870346925146687544,-2668632.4170320611447,613.25736146803114934,23.477187319126411325,261.08651974706776855,273.25077600310396519
     160 0.00060406284   0.26870347    23.477187    910.39636   -2669542.8   -2668632.4    613.25736    261.08652    273.25078 
0.27474409766932411658,-2668631.8851925814524,683.58361758496607763,19.772839756079282125,132.99822203393020459,185.17330622558276332
     170 0.00084635279    0.2747441     19.77284    766.74948   -2669398.6   -2668631.9    683.58362    132.99822    185.17331 
0.28320762553487976998,-2668632.2653427924961,632.40802872338656471,21.839306919700018028,243.24582320900299237,244.65002011777829694
     180 0.00062582319   0.28320763    21.839307    846.88277   -2669479.1   -2668632.3    632.40803    243.24582    244.65002 
0.28946585740899577477,-2668632.181480188854,655.39676720703107549,20.58708450565434589,169.11544579801827126,186.56634702058053676
     190 0.00075055532   0.28946586    20.587085     798.3242   -2669430.5   -2668632.2    655.39677    169.11545    186.56635 
0.2969714106267496434,-2668632.1742268158123,629.4005876776416244,21.319548540457997632,152.7499315709250709,157.79136698698414421
     200 0.00078973945   0.29697141    21.319549    826.72762   -2669458.9   -2668632.2    629.40059    152.74993    157.79137 
0.30486880514318537294,-2668632.2143597309478,613.63074758681034382,21.371741861866144774,110.77625355243597483,120.46982666094159242
     210 0.00092736566   0.30486881    21.371742    828.75157     -2669461   -2668632.2    613.63075    110.77625    120.46983 
0.31414246172851856276,-2668632.1372288544662,633.15651286615468507,21.102030032342131705,92.062883164806748937,95.695481361509351359
     220        0.001   0.31414246     21.10203    818.29271   -2669450.4   -2668632.1    633.15651    92.062883    95.695481 
0.32414246172851857164,-2668631.9817069480196,687.15924675027167723,19.916726057723415977,50.285708748263452605,58.700122720738875159
     230        0.001   0.32414246    19.916726     772.3291   -2669404.3     -2668632    687.15925    50.285709    58.700123 
0.33414246172851858052,-2668631.8667677841149,708.84049967394832947,19.712531634404061975,63.090085844114362601,58.442965014274385283
     240        0.001   0.33414246    19.712532    764.41086   -2669396.3   -2668631.9     708.8405    63.090086    58.442965 
0.3441424617285185894,-2668631.6782290171832,775.69768582395568046,18.001589085142775559,46.504792598158026351,48.907593016119648155
     250        0.001   0.34414246    18.001589    698.06408   -2669329.7   -2668631.7    775.69769    46.504793    48.907593 
0.35414246172851854277,-2668631.6336054620333,799.60557378797693673,17.468620238813254986,36.074914539168410954,30.867494516362633306
     260        0.001   0.35414246     17.46862    677.39666     -2669309   -2668631.6    799.60557    36.074915    30.867495 
0.36414246172851855166,-2668631.6346791726537,817.86048468318949745,16.702125491369034904,31.004442031460776263,28.487679001467547835
     270        0.001   0.36414246    16.702125    647.67359   -2669279.3   -2668631.6    817.86048    31.004442    28.487679 
0.37414246172851856054,-2668631.6162315327674,829.14795163657038302,16.024919999048389485,14.764708997663907653,13.695366593040869674
     280        0.001   0.37414246     16.02492    621.41297     -2669253   -2668631.6    829.14795    14.764709    13.695367 
0.38414246172851856942,-2668631.5703255613334,801.68473817520862212,16.280779077320090664,23.623301153821781639,18.22075758568903936
     290        0.001   0.38414246    16.280779    631.33465   -2669262.9   -2668631.6    801.68474    23.623301    18.220758 
0.3941424617285185783,-2668631.4456474129111,809.62670732711239907,15.737596547827818583,19.370066103186161399,15.770390253366898037
     300        0.001   0.39414246    15.737597    610.27117   -2669241.7   -2668631.4    809.62671    19.370066     15.77039 
0.40414246172851853167,-2668631.4374714251608,842.196668907774324,14.652636713617372521,12.441184367147153367,10.161811790365906205
     310        0.001   0.40414246    14.652637    568.19869   -2669199.6   -2668631.4    842.19667    12.441184    10.161812 
0.41414246172851854055,-2668631.4557424020022,864.10705411026799538,14.077963587392094524,16.279746284708483728,10.298780491577993246
     320        0.001   0.41414246    14.077964    545.91406   -2669177.4   -2668631.5    864.10705    16.279746     10.29878 
0.42414246172851854944,-2668631.4207413927652,889.29776743170373265,13.523131177066405328,12.520808691383695788,7.9751513128250097751
     330        0.001   0.42414246    13.523131    524.39882   -2669155.8   -2668631.4    889.29777    12.520809    7.9751513 
0.43414246172851855832,-2668631.4261745265685,919.93070624754363962,13.228423850893197056,8.6458653290905314037,4.4092529517414655871
     340        0.001   0.43414246    13.228424    512.97069   -2669144.4   -2668631.4    919.93071    8.6458653     4.409253 
0.4441424617285185672,-2668631.420658021234,937.18065470964359065,13.559235283801942984,14.283896616436763338,8.2827795518710018996
     350        0.001   0.44414246    13.559235    525.79886   -2669157.2   -2668631.4    937.18065    14.283897    8.2827796 
0.45414246172851857608,-2668631.4724301104434,945.22349734640181396,14.057856190028687138,9.8913431151433250932,5.4120551767482387717
     360        0.001   0.45414246    14.057856    545.13434   -2669176.6   -2668631.5     945.2235    9.8913431    5.4120552 
0.46414246172851858496,-2668631.485397846438,943.0307164145282286,14.598406982225725415,8.2690799856786014743,3.4139474848186086575
     370        0.001   0.46414246    14.598407    566.09577   -2669197.6   -2668631.5    943.03072      8.26908    3.4139475 
0.47414246172851859384,-2668631.496156077832,942.49992954567846937,14.93915878343659287,12.279055292879560213,6.1884485190655418307
     380        0.001   0.47414246    14.939159    579.30942   -2669210.8   -2668631.5    942.49993    12.279055    6.1884485 
0.48414246172851860273,-2668631.4671932794154,964.08442188569040354,14.730209921017054953,8.7019309705943541644,3.870451480394164534
     390        0.001   0.48414246     14.73021    571.20682   -2669202.7   -2668631.5    964.08442     8.701931    3.8704515 
0.4941424617285185561,-2668631.4574822229333,982.88857030462042985,14.328064646243204194,6.6508308392425661282,1.5349087892615687068
     400        0.001   0.49414246    14.328065    555.61246   -2669187.1   -2668631.5    982.88857    6.6508308    1.5349088 
0.50414246172851862049,-2668631.4281999380328,988.47014481463736502,14.056474715495227201,10.521397961319381764,4.3118450760304867231
     410        0.001   0.50414246    14.056475    545.08077   -2669176.5   -2668631.4    988.47014    10.521398    4.3118451 
0.51414246172851862937,-2668631.4221941786818,989.71785413736336068,13.874480334607738996,8.383391887941129994,2.9477289537028434907
     420        0.001   0.51414246     13.87448    538.02341   -2669169.4   -2668631.4    989.71785    8.3833919     2.947729 
0.52414246172851852723,-2668631.4179964349605,987.67315138601134095,13.918516741969584771,4.3721680451456785832,-0.97373587265463523721
     430        0.001   0.52414246    13.918517    539.73105   -2669171.1   -2668631.4    987.67315     4.372168  -0.97373587 
0.53414246172851853611,-2668631.426775992848,979.54739685712274877,14.268336116291708393,8.6522219119308836355,2.335845968408578166
     440        0.001   0.53414246    14.268336    553.29631   -2669184.7   -2668631.4     979.5474    8.6522219     2.335846 
0.54414246172851854499,-2668631.4005322870798,967.19543540452957586,14.644332390905068664,8.0950214158431688105,2.0056024392211320162
     450        0.001   0.54414246    14.644332    567.87667   -2669199.3   -2668631.4    967.19544    8.0950214    2.0056024 
0.55414246172851855388,-2668631.368463461753,966.09553168297520642,14.912416007080127045,4.1493733781879589273,-0.95893493201885249277
     460        0.001   0.55414246    14.912416    578.27239   -2669209.6   -2668631.4    966.09553    4.1493734  -0.95893493 
0.56414246172851856276,-2668631.3700597016141,963.09691191609749694,15.115502085811666433,5.7684255443901948368,-0.30826650685237666494
     470        0.001   0.56414246    15.115502    586.14764   -2669217.5   -2668631.4    963.09691    5.7684255  -0.30826651 
0.57414246172851857164,-2668631.3651406266727,963.94066703751241221,15.227658529007944921,6.8323274397880870978,0.46841694110407594565
     480        0.001   0.57414246    15.227659    590.49684   -2669221.9   -2668631.4    963.94067    6.8323274   0.46841694 
0.58414246172851858052,-2668631.3715609395877,963.76996744464156563,15.279025943681929789,5.3992792149827737447,-0.53423278335211499268
     490        0.001   0.58414246    15.279026    592.48876   -2669223.9   -2668631.4    963.76997    5.3992792  -0.53423278 
0.5941424617285185894,-2668631.3660971974023,958.36916526361949309,15.342152347582040051,2.7520297993047404539,-3.5467590317825212765
     500        0.001   0.59414246    15.342152    594.93667   -2669226.3   -2668631.4    958.36917    2.7520298    -3.546759 
Loop time of 32.5128 on 8 procs for 500 steps with 300000 atoms

Performance: 1.329 ns/day, 18.063 hours/ns, 15.379 timesteps/s
99.2% CPU use with 8 MPI tasks x 1 OpenMP threads

MPI task timing breakdown:
Section |  min time  |  avg time  |  max time  |%varavg| %total
---------------------------------------------------------------
Pair    | 28.388     | 28.882     | 29.148     |   4.1 | 88.83
Neigh   | 1.9148     | 1.9484     | 2.0194     |   2.4 |  5.99
Comm    | 0.43658    | 0.77352    | 1.3028     |  28.4 |  2.38
Output  | 0.11194    | 0.11377    | 0.11405    |   0.2 |  0.35
Modify  | 0.61023    | 0.61487    | 0.61793    |   0.3 |  1.89
Other   |            | 0.1804     |            |       |  0.55

Nlocal:    37500 ave 37640 max 37286 min
Histogram: 1 1 0 0 0 1 1 1 1 2
Nghost:    22579.9 ave 22784 max 22453 min
Histogram: 2 1 1 1 1 0 0 0 1 1
Neighs:    1.20006e+06 ave 1.21488e+06 max 1.18948e+06 min
Histogram: 3 1 0 0 0 0 2 1 0 1

Total # of neighbors = 9600479
Ave neighs/atom = 32.0016
Neighbor list builds = 58
Dangerous builds = 12
System init for write_data ...
Setting up Verlet run ...
  Unit style    : metal
  Current step  : 500
  Time step     : 0.001
Per MPI rank memory allocation (min/avg/max) = 25.11 | 25.11 | 25.11 Mbytes
Step Dt Time Temp KinEng PotEng TotEng Press c_kemax c_temax 
     500        0.001   0.59414246    15.342152    594.93667   -2669226.3   -2668631.4    958.36917    2.7520298    -3.546759 
0.60414246172851859829,-2668631.372107250616,947.24996333695889916,15.410249611633847877,5.0007524750972782712,-1.5163882392661829357
     510        0.001   0.60414246     15.41025    597.57734   -2669228.9   -2668631.4    947.24996    5.0007525   -1.5163882 
0.61414246172851860717,-2668631.3761831843294,940.64881140280874661,15.382322044702023689,4.9632653596288696107,-1.509814469371839607
     520        0.001   0.61414246    15.382322    596.49437   -2669227.9   -2668631.4    940.64881    4.9632654   -1.5098145 
0.62414246172851861605,-2668631.405422707554,941.76279540306347826,15.239229129623582892,3.9672408597288328913,-2.2798304060426777262
     530        0.001   0.62414246    15.239229    590.94552   -2669222.4   -2668631.4     941.7628    3.9672409   -2.2798304 
0.63414246172851862493,-2668631.4026921787299,939.02294296129650775,15.003194707530234098,2.5971147899079412014,-4.3413103133716015591
     540        0.001   0.63414246    15.003195     581.7926   -2669213.2   -2668631.4    939.02294    2.5971148   -4.3413103 
0.64414246172851863381,-2668631.4044221956283,929.73788285365969841,14.785108495612471202,3.33346074476874632,-3.3801924393875713015
     550        0.001   0.64414246    14.785108    573.33567   -2669204.7   -2668631.4    929.73788    3.3334607   -3.3801924 
0.65414246172851853167,-2668631.4017721521668,924.64163423695549682,14.671792691656342811,3.3777922548404699654,-3.2934162944295080067
     560        0.001   0.65414246    14.671793    568.94152   -2669200.3   -2668631.4    924.64163    3.3777923   -3.2934163 
0.66414246172851854055,-2668631.4026779313572,919.18520915348483413,14.758748489650178826,2.9710616670968112984,-3.6676052564350030138
     570        0.001   0.66414246    14.758748    572.31348   -2669203.7   -2668631.4    919.18521    2.9710617   -3.6676053 
0.67414246172851854944,-2668631.4106155424379,913.11936647850438931,15.010643895100606926,3.3653607607831865778,-4.3449271258814512464
     580        0.001   0.67414246    15.010644    582.08146   -2669213.5   -2668631.4    913.11937    3.3653608   -4.3449271 
0.68414246172851855832,-2668631.4042108054273,908.57343834299513219,15.326854869988858709,3.6789683413198859263,-4.3917334209069931461
     590        0.001   0.68414246    15.326855    594.34346   -2669225.7   -2668631.4    908.57344    3.6789683   -4.3917334 
0.6941424617285185672,-2668631.4117776206695,904.19168167564009764,15.664366460010263893,3.7032193579074328404,-4.6243478028673585811
     600        0.001   0.69414246    15.664366    607.43146   -2669238.8   -2668631.4    904.19168    3.7032194   -4.6243478 
0.70414246172851857608,-2668631.4131381181069,902.95768631788394032,15.90196637533066415,3.3824801777599362573,-4.8579366759245399265
     610        0.001   0.70414246    15.901966    616.64509   -2669248.1   -2668631.4    902.95769    3.3824802   -4.8579367 
0.71414246172851858496,-2668631.4129038457759,905.01760552459438713,15.961985133346729526,2.4428884396384917821,-4.861863953276422734
     620        0.001   0.71414246    15.961985    618.97249   -2669250.4   -2668631.4    905.01761    2.4428884    -4.861864 
0.72414246172851859384,-2668631.4102741591632,904.52264153737871766,15.870157538534312991,2.5671496249466594364,-4.7275135656188789213
     630        0.001   0.72414246    15.870158    615.41161   -2669246.8   -2668631.4    904.52264    2.5671496   -4.7275136 
0.73414246172851860273,-2668631.4103161678649,900.81287985875792401,15.732040618189412129,2.7185449159610319825,-4.2533693747893197568
     640        0.001   0.73414246    15.732041    610.05572   -2669241.5   -2668631.4    900.81288    2.7185449   -4.2533694 
0.74414246172851861161,-2668631.408737831749,891.11922975051675166,15.587889644694081781,3.5958282570924535726,-3.7282835631143274036
     650        0.001   0.74414246     15.58789    604.46585   -2669235.9   -2668631.4    891.11923    3.5958283   -3.7282836 
0.75414246172851862049,-2668631.4069407503121,879.62938618011321523,15.499490085085609437,4.311668485787016003,-3.3291227542160424235
     660        0.001   0.75414246     15.49949     601.0379   -2669232.4   -2668631.4    879.62939    4.3116685   -3.3291228 
0.76414246172851862937,-2668631.4080286873505,868.681868666699188,15.518368080394656872,4.38308661704394531,-3.1781465315878971722
     670        0.001   0.76414246    15.518368    601.76995   -2669233.2   -2668631.4    868.68187    4.3830866   -3.1781465 
0.77414246172851863825,-2668631.4108375441283,860.70559453679686612,15.611811726377597509,3.8631653017796931948,-3.26708699614461473
     680        0.001   0.77414246    15.611812     605.3935   -2669236.8   -2668631.4    860.70559    3.8631653    -3.267087 
0.78414246172851864713,-2668631.4122265628539,859.53254372173535103,15.687140854794671796,3.6588907469893579005,-3.5130806392797380155
     690        0.001   0.78414246    15.687141     608.3146   -2669239.7   -2668631.4    859.53254    3.6588907   -3.5130806 
0.79414246172851865602,-2668631.396659293212,864.6848270966037262,15.713935432691799932,3.9217657723624892441,-3.9956890792306936078
     700        0.001   0.79414246    15.713935    609.35364   -2669240.8   -2668631.4    864.68483    3.9217658   -3.9956891 
0.80414246172851855388,-2668631.3843556488864,864.40281439772809335,15.764906049829455981,3.8180288913950390928,-4.0812953325928695847
     710        0.001   0.80414246    15.764906    611.33017   -2669242.7   -2668631.4    864.40281    3.8180289   -4.0812953 
0.81414246172851856276,-2668631.3831803654321,863.09477336411441684,15.826098185358683068,3.1705159072554041089,-4.1893843921315188084
     720        0.001   0.81414246    15.826098    613.70308   -2669245.1   -2668631.4    863.09477    3.1705159   -4.1893844 
0.82414246172851857164,-2668631.383323862683,861.20026851791521949,15.918294584173146688,3.8920363589993169917,-4.0144676757778157139
     730        0.001   0.82414246    15.918295    617.27826   -2669248.7   -2668631.4    861.20027    3.8920364   -4.0144677 
0.83414246172851858052,-2668631.3792955963872,858.30269993325714495,16.004057261976470272,3.9617747917227452703,-4.0433686279259353213
     740        0.001   0.83414246    16.004057    620.60396     -2669252   -2668631.4     858.3027    3.9617748   -4.0433686 
0.8441424617285185894,-2668631.3623788403347,855.80444379935909183,16.087524255790697225,3.5603148503176802464,-4.2975693129001593107
     750        0.001   0.84414246    16.087524    623.84064   -2669255.2   -2668631.4    855.80444    3.5603149   -4.2975693 
0.85414246172851859829,-2668631.3630277169868,850.03354202210812218,16.196034559609806536,2.8089429917216746091,-4.3254844211289924516
     760        0.001   0.85414246    16.196035    628.04844   -2669259.4   -2668631.4    850.03354     2.808943   -4.3254844 
0.86414246172851860717,-2668631.3662206716835,842.32206470566677581,16.319005061277554347,3.2550944885373733761,-4.3268151140254564879
     770        0.001   0.86414246    16.319005    632.81698   -2669264.2   -2668631.4    842.32206    3.2550945   -4.3268151 
0.87414246172851861605,-2668631.3542082351632,835.12447373542158857,16.361708857472134326,3.6873081413679211771,-3.7787126541209858921
     780        0.001   0.87414246    16.361709    634.47294   -2669265.8   -2668631.4    835.12447    3.6873081   -3.7787127 
0.88414246172851851391,-2668631.3530609956942,833.67058542550444145,16.307716860368316247,3.8621457975759025949,-3.473078435455940749
     790        0.001   0.88414246    16.307717    632.37925   -2669263.7   -2668631.4    833.67059    3.8621458   -3.4730784 
0.89414246172851852279,-2668631.3495927136391,836.83269235333830238,16.21286062584341181,3.7441414728558033431,-3.3932763940201984276
     800        0.001   0.89414246    16.212861    628.70092   -2669260.1   -2668631.3    836.83269    3.7441415   -3.3932764 
0.90414246172851853167,-2668631.3506574765779,839.82883258959941486,16.193337732407385943,3.558544848308298203,-3.4726592074251145803
     810        0.001   0.90414246    16.193338    627.94386   -2669259.3   -2668631.4    839.82883    3.5585448   -3.4726592 
0.91414246172851854055,-2668631.3558598286472,838.98251941950400123,16.306169252229302913,3.305368574422573591,-3.6214954387380968726
     820        0.001   0.91414246    16.306169    632.31923   -2669263.7   -2668631.4    838.98252    3.3053686   -3.6214954 
0.92414246172851854944,-2668631.3585498048924,837.78246471389832095,16.494527372133315879,2.8930094443736122933,-3.911964999354097472
     830        0.001   0.92414246    16.494527    639.62337     -2669271   -2668631.4    837.78246    2.8930094    -3.911965 
0.93414246172851855832,-2668631.3599999300204,833.26357544829704693,16.664945634982437639,2.7523700538245892133,-4.4072628482335911571
     840        0.001   0.93414246    16.664946    646.23183   -2669277.6   -2668631.4    833.26358    2.7523701   -4.4072628 
0.9441424617285185672,-2668631.3608701219782,830.39411606380770081,16.756638862869142059,2.8959768025732857133,-4.9379429770702785163
     850        0.001   0.94414246    16.756639     649.7875   -2669281.1   -2668631.4    830.39412    2.8959768    -4.937943 
0.95414246172851857608,-2668631.3539363984019,829.44629698813389496,16.732012678546077211,2.8366275970188761235,-4.7655889957990567041
     860        0.001   0.95414246    16.732013    648.83255   -2669280.2   -2668631.4     829.4463    2.8366276    -4.765589 
0.96414246172851858496,-2668631.3500765729696,830.05854550111450862,16.615182324305155959,2.7424838645252949121,-4.4267123209223662172
     870        0.001   0.96414246    16.615182    644.30212   -2669275.7   -2668631.4    830.05855    2.7424839   -4.4267123 
0.97414246172851859384,-2668631.349744271487,831.18726734234348896,16.429789901504101124,2.4996577775122639231,-4.4805383937036751263
     880        0.001   0.97414246     16.42979    637.11298   -2669268.5   -2668631.3    831.18727    2.4996578   -4.4805384 
0.98414246172851860273,-2668631.3465534723364,828.31547855811754744,16.215340119132068963,2.582813319685542286,-4.7318635580742087754
     890        0.001   0.98414246     16.21534    628.79707   -2669260.1   -2668631.3    828.31548    2.5828133   -4.7318636 
0.99414246172851861161,-2668631.3464967533946,825.89271015343479121,16.078907026246312739,2.5500036808625776708,-4.9475550613003154155
     900        0.001   0.99414246    16.078907    623.50648   -2669254.9   -2668631.3    825.89271    2.5500037   -4.9475551 
1.0041424617285186205,-2668631.3464476303197,823.82855419898942273,16.048123804031799722,2.4163661977197579134,-4.7166949928746451093
     910        0.001    1.0041425    16.048124    622.31277   -2669253.7   -2668631.3    823.82855    2.4163662    -4.716695 
1.0141424617285186294,-2668631.3485634769313,821.1830779603785686,16.11647403067073725,2.0757675864201883265,-4.4526503768456642263
     920        0.001    1.0141425    16.116474    624.96325   -2669256.3   -2668631.3    821.18308    2.0757676   -4.4526504 
1.0241424617285186383,-2668631.3490450573154,820.32372678302306213,16.232314809936596589,2.1239518977627542817,-4.1449232956771098202
     930        0.001    1.0241425    16.232315    629.45531   -2669260.8   -2668631.3    820.32373    2.1239519   -4.1449233 
1.0341424617285186471,-2668631.350325467065,818.5913602382325962,16.357904426606030057,2.7860236571218872648,-3.8076888174790783914
     940        0.001    1.0341425    16.357904    634.32541   -2669265.7   -2668631.4    818.59136    2.7860237   -3.8076888 
1.044142461728518656,-2668631.350077742245,816.3951387326682152,16.458730988494771452,3.1023084013577264528,-3.6181056757385956502
     950        0.001    1.0441425    16.458731    638.23526   -2669269.6   -2668631.4    816.39514    3.1023084   -3.6181057 
1.0541424617285186649,-2668631.3496633223258,819.90717659729602929,16.538470316771945789,2.9716560054906611121,-3.6190776461798175312
     960        0.001    1.0541425     16.53847    641.32738   -2669272.7   -2668631.3    819.90718     2.971656   -3.6190776 
1.0641424617285186738,-2668631.3507044008002,820.82883181852309917,16.610579966679726027,2.7461423445927852782,-3.6855898259835191411
     970        0.001    1.0641425     16.61058    644.12365   -2669275.5   -2668631.4    820.82883    2.7461423   -3.6855898 
1.0741424617285186827,-2668631.3511098152958,821.68590508703823616,16.657794635456060206,2.8878274674802928423,-3.869240712742861632
     980        0.001    1.0741425    16.657795    645.95453   -2669277.3   -2668631.4    821.68591    2.8878275   -3.8692407 
1.0841424617285184695,-2668631.3513353471644,827.317175868204572,16.665056406581420845,3.1494419316440525058,-4.2525987120985995205
     990        0.001    1.0841425    16.665056    646.23613   -2669277.6   -2668631.4    827.31718    3.1494419   -4.2525987 
1.0941424617285187004,-2668631.3499908479862,829.67489391536435051,16.641585858347134774,3.3054157211103398772,-4.6508497727107158681
    1000        0.001    1.0941425    16.641586    645.32599   -2669276.7   -2668631.3    829.67489    3.3054157   -4.6508498 
Loop time of 31.2769 on 8 procs for 500 steps with 300000 atoms

Performance: 1.381 ns/day, 17.376 hours/ns, 15.986 timesteps/s
99.2% CPU use with 8 MPI tasks x 1 OpenMP threads

MPI task timing breakdown:
Section |  min time  |  avg time  |  max time  |%varavg| %total
---------------------------------------------------------------
Pair    | 28.481     | 29.046     | 29.318     |   4.6 | 92.87
Neigh   | 0.59615    | 0.61448    | 0.63752    |   1.5 |  1.96
Comm    | 0.36923    | 0.64875    | 1.2402     |  32.5 |  2.07
Output  | 0.12728    | 0.1291     | 0.12938    |   0.2 |  0.41
Modify  | 0.60704    | 0.61407    | 0.62125    |   0.8 |  1.96
Other   |            | 0.2247     |            |       |  0.72

Nlocal:    37500 ave 37714 max 37317 min
Histogram: 3 0 0 1 0 1 0 1 1 1
Nghost:    22590.8 ave 22772 max 22379 min
Histogram: 1 1 1 0 1 0 1 0 0 3
Neighs:    1.20003e+06 ave 1.21405e+06 max 1.18436e+06 min
Histogram: 1 0 1 2 0 0 1 1 1 1

Total # of neighbors = 9600212
Ave neighs/atom = 32.0007
Neighbor list builds = 18
Dangerous builds = 0
System init for write_data ...
Setting up Verlet run ...
  Unit style    : metal
  Current step  : 1000
  Time step     : 0.001
Per MPI rank memory allocation (min/avg/max) = 25.12 | 25.12 | 25.12 Mbytes
Step Dt Time Temp KinEng PotEng TotEng Press c_kemax c_temax 
    1000        0.001    1.0941425    16.641586    645.32599   -2669276.7   -2668631.3    829.67489    3.3054157   -4.6508498 
1.1041424617285187093,-2668631.351358730346,828.65531203992452447,16.613865488019950334,3.2401950747209480319,-5.0093021057652329375
    1010        0.001    1.1041425    16.613865    644.25105   -2669275.6   -2668631.4    828.65531    3.2401951   -5.0093021 
1.1141424617285187182,-2668631.3517891988158,828.21039793137981633,16.554684764156181842,2.6328909702291500849,-5.2247465972084858876
    1020        0.001    1.1141425    16.554685    641.95615   -2669273.3   -2668631.4     828.2104     2.632891   -5.2247466 
1.1241424617285187271,-2668631.3506460366771,825.67958364150592843,16.461877871047722266,2.4088755024627270807,-5.1287361903401933461
    1030        0.001    1.1241425    16.461878    638.35729   -2669269.7   -2668631.4    825.67958    2.4088755   -5.1287362 
1.134142461728518736,-2668631.347819307819,824.21135751896895272,16.381094794570174145,1.9223861010205702815,-5.0571667837284817182
    1040        0.001    1.1341425    16.381095    635.22469   -2669266.6   -2668631.3    824.21136    1.9223861   -5.0571668 
1.1441424617285187448,-2668631.3483523628674,824.17733223890127192,16.391072338832685773,1.7620459228100775473,-4.8969235048122792264
    1050        0.001    1.1441425    16.391072     635.6116     -2669267   -2668631.3    824.17733    1.7620459   -4.8969235 
1.1541424617285187537,-2668631.3493997668847,824.23248283798011471,16.48996671656442814,2.2379895284267710132,-4.6829208087632974156
    1060        0.001    1.1541425    16.489967    639.44652   -2669270.8   -2668631.3    824.23248    2.2379895   -4.6829208 
1.1641424617285187626,-2668631.3501103995368,824.45401824054204099,16.64144893937977443,2.2584024231745085665,-4.4292072576568068953
    1070        0.001    1.1641425    16.641449    645.32068   -2669276.7   -2668631.4    824.45402    2.2584024   -4.4292073 
1.1741424617285187715,-2668631.3570712115616,822.77430498061391972,16.80582391996645697,1.8560423251634960984,-4.2039372076144463364
    1080        0.001    1.1741425    16.805824     651.6948   -2669283.1   -2668631.4     822.7743    1.8560423   -4.2039372 
1.1841424617285187804,-2668631.357529362198,819.51444818359834699,16.894069584618044644,1.7049405080753106123,-4.111911817360782706
    1090        0.001    1.1841425     16.89407    655.11678   -2669286.5   -2668631.4    819.51445    1.7049405   -4.1119118 
1.1941424617285187892,-2668631.3548894808628,828.30215933940780815,16.816614661433913369,1.8833048096534816818,-4.0964841259003854645
    1100        0.001    1.1941425    16.816615    652.11324   -2669283.5   -2668631.4    828.30216    1.8833048   -4.0964841 
1.2041424617285187981,-2668631.3515699086711,838.51546667939135205,16.620340992616810638,1.7612227920223315625,-4.2023678755750042413
    1110        0.001    1.2041425    16.620341    644.50216   -2669275.9   -2668631.4    838.51547    1.7612228   -4.2023679 
1.214142461728518807,-2668631.3450715881772,839.73801963876746868,16.444444558505342258,1.6316517161241244072,-4.4700796061502101608
    1120        0.001    1.2141425    16.444445    637.68126     -2669269   -2668631.3    839.73802    1.6316517   -4.4700796 
1.2241424617285185938,-2668631.3462655073963,835.20293635735288262,16.403500042562658479,1.3504877135984083569,-4.7748067423479190197
    1130        0.001    1.2241425      16.4035    636.09352   -2669267.4   -2668631.3    835.20294    1.3504877   -4.7748067 
1.2341424617285188248,-2668631.3484826637432,826.447823282021659,16.505054807498932945,1.3556155775343938785,-4.9257664656487367694
    1140        0.001    1.2341425    16.505055     640.0316   -2669271.4   -2668631.3    826.44782    1.3556156   -4.9257665 
1.2441424617285186116,-2668631.3520877012052,816.170498251770141,16.65347440439658655,1.5429762500656676316,-4.8603930530246692854
    1150        0.001    1.2441425    16.653474      645.787   -2669277.1   -2668631.4     816.1705    1.5429763   -4.8603931 
1.2541424617285186205,-2668631.3528800774366,813.84489684660786679,16.720598817021141258,1.8121711862273390814,-4.8097513626792558483
    1160        0.001    1.2541425    16.720599    648.38995   -2669279.7   -2668631.4     813.8449    1.8121712   -4.8097514 
1.2641424617285186294,-2668631.3502832292579,816.23025139524361293,16.673009490365579666,1.7003128609047475361,-4.9399220865663915347
    1170        0.001    1.2641425    16.673009    646.54453   -2669277.9   -2668631.4    816.23025    1.7003129   -4.9399221 
1.2741424617285186383,-2668631.3486760342494,823.74094218435595849,16.58962616748998542,1.3671450513668712556,-5.1947811019836844793
    1180        0.001    1.2741425    16.589626     643.3111   -2669274.7   -2668631.3    823.74094    1.3671451   -5.1947811 
1.2841424617285186471,-2668631.3478177865036,829.98699824392997471,16.536435583786172288,1.3207520369217395917,-5.451711701981871272
    1190        0.001    1.2841425    16.536436    641.24848   -2669272.6   -2668631.3      829.987     1.320752   -5.4517117 
1.294142461728518656,-2668631.3475218312815,827.12701045115909437,16.550703295320388975,1.382338993340714195,-5.4671022683642904738
    1200        0.001    1.2941425    16.550703    641.80175   -2669273.1   -2668631.3    827.12701     1.382339   -5.4671023 
1.3041424617285186649,-2668631.3485490744933,824.49745133414887732,16.639823387927609843,1.2559420516002364199,-5.5532135149916355132
    1210        0.001    1.3041425    16.639823    645.25764   -2669276.6   -2668631.3    824.49745    1.2559421   -5.5532135 
1.3141424617285186738,-2668631.3506048531272,821.23458077588725246,16.756645012275516393,1.3749489281456621637,-5.694032395143615588
    1220        0.001    1.3141425    16.756645    649.78774   -2669281.1   -2668631.4    821.23458    1.3749489   -5.6940324 
1.3241424617285186827,-2668631.3510272032581,819.09212138305565531,16.833216048896307626,1.4493397364140481187,-5.7098369721361912354
    1230        0.001    1.3241425    16.833216    652.75701   -2669284.1   -2668631.4    819.09212    1.4493397    -5.709837 
1.3341424617285186915,-2668631.3504277798347,817.49511521766805799,16.844592166723664661,1.5631131016853285765,-5.6323776415305220056
    1240        0.001    1.3341425    16.844592    653.19815   -2669284.5   -2668631.4    817.49512    1.5631131   -5.6323776 
1.3441424617285187004,-2668631.3495072135702,814.9470439983047072,16.81291145591537628,1.4842019776661985464,-5.5821434154467830524
    1250        0.001    1.3441425    16.812911    651.96964   -2669283.3   -2668631.3    814.94704     1.484202   -5.5821434 
1.3541424617285187093,-2668631.3498569969088,812.56664612774886791,16.770983005312828595,1.630958872944053839,-5.5776722680505992358
    1260        0.001    1.3541425    16.770983    650.34374   -2669281.7   -2668631.3    812.56665    1.6309589   -5.5776723 
1.3641424617285187182,-2668631.3494477239437,811.85291688464246818,16.723669777539814874,1.8017135380624542673,-5.6267954417705388082
    1270        0.001    1.3641425     16.72367    648.50903   -2669279.9   -2668631.3    811.85292    1.8017135   -5.6267954 
1.3741424617285187271,-2668631.349168619141,815.07754023385098208,16.685691569255400424,1.7566371775610865047,-5.723981294153251298
    1280        0.001    1.3741425    16.685692    647.03632   -2669278.4   -2668631.3    815.07754    1.7566372   -5.7239813 
1.384142461728518736,-2668631.3474134877324,818.1068093325012569,16.685940702568711203,1.8357568361599754247,-5.8205091727039155458
    1290        0.001    1.3841425    16.685941    647.04598   -2669278.4   -2668631.3    818.10681    1.8357568   -5.8205092 
1.3941424617285187448,-2668631.3488291185349,816.65045308806293178,16.765864638933436481,1.8186580356523172064,-5.8642070094474529895
    1300        0.001    1.3941425    16.765865    650.14526   -2669281.5   -2668631.3    816.65045     1.818658    -5.864207 
1.4041424617285187537,-2668631.350695207715,814.54299740967553589,16.882206132246661667,1.9145695873483592475,-5.9347199203686766822
    1310        0.001    1.4041425    16.882206    654.65674     -2669286   -2668631.4      814.543    1.9145696   -5.9347199 
1.4141424617285187626,-2668631.3514457312413,812.05305679576872535,16.972718251968085923,1.8610059491960897482,-5.9733462466573490346
    1320        0.001    1.4141425    16.972718    658.16661   -2669289.5   -2668631.4    812.05306    1.8610059   -5.9733462 
1.4241424617285187715,-2668631.3534247037023,814.04264986488271916,16.993239978820263048,1.6194239553930702691,-5.871702525967655184
    1330        0.001    1.4241425     16.99324     658.9624   -2669290.3   -2668631.4    814.04265     1.619424   -5.8717025 
1.4341424617285187804,-2668631.3515824396163,819.52637541056674308,16.89986512883496772,1.3084677156366935069,-5.8012001729209377032
    1340        0.001    1.4341425    16.899865    655.34152   -2669286.7   -2668631.4    819.52638    1.3084677   -5.8012002 
1.4441424617285187892,-2668631.3490114100277,821.71902402777902807,16.75349410787709914,1.6992893996270250767,-5.6840154101622610838
    1350        0.001    1.4441425    16.753494    649.66556     -2669281   -2668631.3    821.71902    1.6992894   -5.6840154 
1.4541424617285185761,-2668631.3474830477498,820.78490292336641687,16.649571443638716772,2.1507895121785578496,-5.5493184392502303837
    1360        0.001    1.4541425    16.649571    645.63565     -2669277   -2668631.3     820.7849    2.1507895   -5.5493184 
1.464142461728518807,-2668631.3478717557155,817.13268946606115151,16.64051564265071903,2.6689625216726802215,-5.1682928695262067009
    1370        0.001    1.4641425    16.640516    645.28449   -2669276.6   -2668631.3    817.13269    2.6689625   -5.1682929 
1.4741424617285185938,-2668631.3493778579868,812.52130684246697001,16.714843227241104273,3.218015269004263601,-4.7477852133145521663
    1380        0.001    1.4741425    16.714843    648.16676   -2669279.5   -2668631.3    812.52131    3.2180153   -4.7477852 
1.4841424617285188248,-2668631.3505924269557,807.43545870522927999,16.822292449678130311,3.6790676374677775406,-4.3855489441039470222
    1390        0.001    1.4841425    16.822292    652.33341   -2669283.7   -2668631.4    807.43546    3.6790676   -4.3855489 
1.4941424617285186116,-2668631.3509131134488,802.65287962765751217,16.916994478190620299,3.9464433386039807772,-4.2175203248405885859
    1400        0.001    1.4941425    16.916994    656.00576   -2669287.4   -2668631.4    802.65288    3.9464433   -4.2175203 
1.5041424617285188425,-2668631.3516810387373,802.7440875176314421,16.975643684216009888,3.9328232104575158168,-4.2835273829458220263
    1410        0.001    1.5041425    16.975644    658.28005   -2669289.6   -2668631.4    802.74409    3.9328232   -4.2835274 
1.5141424617285186294,-2668631.3481338880956,805.78882554196695764,16.982212521338155398,3.4483593138012018642,-4.6581147035960004388
    1420        0.001    1.5141425    16.982213    658.53478   -2669289.9   -2668631.3    805.78883    3.4483593   -4.6581147 
1.5241424617285186383,-2668631.3506141118705,806.29372466525921936,16.981428283770767962,2.5407792526721424409,-4.8912484367866539969
    1430        0.001    1.5241425    16.981428    658.50437   -2669289.9   -2668631.4    806.29372    2.5407793   -4.8912484 
1.5341424617285186471,-2668631.3512762472965,805.34760937028590888,17.032515613232654061,3.0780680605404824313,-5.074148589619575489
    1440        0.001    1.5341425    17.032516    660.48543   -2669291.8   -2668631.4    805.34761    3.0780681   -5.0741486 
1.544142461728518656,-2668631.3538599479944,802.6689066293616861,17.115501913923576893,3.4038730655041682382,-5.2090336389797782246
    1450        0.001    1.5441425    17.115502    663.70347   -2669295.1   -2668631.4    802.66891    3.4038731   -5.2090336 
1.5541424617285186649,-2668631.3544739903882,803.62248642826580181,17.14385299265866891,3.1535699677633775018,-5.2327036676926059755
    1460        0.001    1.5541425    17.143853    664.80286   -2669296.2   -2668631.4    803.62249      3.15357   -5.2327037 
1.5641424617285186738,-2668631.3529362301342,803.1811321487598434,17.095209537835472702,2.3522060536438833545,-5.4482446895591332137
    1470        0.001    1.5641425     17.09521    662.91657   -2669294.3   -2668631.4    803.18113    2.3522061   -5.4482447 
1.5741424617285186827,-2668631.3526887954213,803.16274371779024932,17.009246182966368366,1.5170382030645044313,-5.7725199683146826146
    1480        0.001    1.5741425    17.009246    659.58309   -2669290.9   -2668631.4    803.16274    1.5170382     -5.77252 
1.5841424617285186915,-2668631.3525098212995,799.85348399827921639,16.902284814596587381,1.1221236472852460508,-5.8277164373439962475
    1490        0.001    1.5841425    16.902285    655.43535   -2669286.8   -2668631.4    799.85348    1.1221236   -5.8277164 
1.5941424617285187004,-2668631.3509711250663,796.7141169662812672,16.791744874642866137,0.962806888958990581,-5.8372072251585720437
    1500        0.001    1.5941425    16.791745    651.14884   -2669282.5   -2668631.4    796.71412   0.96280689   -5.8372072 
Loop time of 31.1728 on 8 procs for 500 steps with 300000 atoms

Performance: 1.386 ns/day, 17.318 hours/ns, 16.040 timesteps/s
99.2% CPU use with 8 MPI tasks x 1 OpenMP threads

MPI task timing breakdown:
Section |  min time  |  avg time  |  max time  |%varavg| %total
---------------------------------------------------------------
Pair    | 28.586     | 29.04      | 29.423     |   4.4 | 93.16
Neigh   | 0.43408    | 0.44364    | 0.45915    |   1.2 |  1.42
Comm    | 0.34376    | 0.73758    | 1.208      |  29.0 |  2.37
Output  | 0.11       | 0.11176    | 0.11203    |   0.2 |  0.36
Modify  | 0.60429    | 0.61234    | 0.62078    |   0.8 |  1.96
Other   |            | 0.228      |            |       |  0.73

Nlocal:    37500 ave 37709 max 37166 min
Histogram: 1 0 0 1 1 0 1 2 0 2
Nghost:    22592 ave 22926 max 22384 min
Histogram: 2 0 2 1 0 1 1 0 0 1
Neighs:    1.20001e+06 ave 1.21182e+06 max 1.17889e+06 min
Histogram: 1 0 0 1 1 0 2 0 0 3

Total # of neighbors = 9600069
Ave neighs/atom = 32.0002
Neighbor list builds = 13
Dangerous builds = 0
System init for write_data ...
Setting up Verlet run ...
  Unit style    : metal
  Current step  : 1500
  Time step     : 0.001
Per MPI rank memory allocation (min/avg/max) = 25.12 | 25.12 | 25.12 Mbytes
Step Dt Time Temp KinEng PotEng TotEng Press c_kemax c_temax 
    1500        0.001    1.5941425    16.791745    651.14884   -2669282.5   -2668631.4    796.71412   0.96280689   -5.8372072 
1.6041424617285187093,-2668631.3503427244723,792.20879740982024941,16.727437312952393,1.1677444655495230474,-5.8543994936822993935
    1510        0.001    1.6041425    16.727437    648.65513     -2669280   -2668631.4     792.2088    1.1677445   -5.8543995 
1.6141424617285187182,-2668631.3507790341973,790.83682812072925117,16.729605069065176082,1.3889529361119627993,-5.8684428059024735802
    1520        0.001    1.6141425    16.729605    648.73919   -2669280.1   -2668631.4    790.83683    1.3889529   -5.8684428 
1.6241424617285187271,-2668631.3515174132772,791.39998197077147779,16.778261359037312417,1.3149391354825574751,-5.8642686349625670061
    1530        0.001    1.6241425    16.778261    650.62598     -2669282   -2668631.4    791.39998    1.3149391   -5.8642686 
1.634142461728518736,-2668631.3524000868201,794.41556657099238237,16.840332396331596954,1.1661399986850302657,-5.8346054781752929586
    1540        0.001    1.6341425    16.840332    653.03297   -2669284.4   -2668631.4    794.41557      1.16614   -5.8346055 
1.6441424617285187448,-2668631.3521908535622,799.14528271326025788,16.891736863261876067,1.0777554199914429756,-5.7889829281156819363
    1550        0.001    1.6441425    16.891737    655.02632   -2669286.4   -2668631.4    799.14528    1.0777554   -5.7889829 
1.6541424617285187537,-2668631.3526002783328,801.12166057504146011,16.933931375606359637,0.96457292430765395608,-5.740809810420573811
    1560        0.001    1.6541425    16.933931    656.66254     -2669288   -2668631.4    801.12166   0.96457292   -5.7408098 
1.6641424617285187626,-2668631.3519819290377,799.18934882157634547,16.958576104858028799,0.85261648502424114415,-5.7019579984184076693
    1570        0.001    1.6641425    16.958576    657.61821     -2669289   -2668631.4    799.18935   0.85261649    -5.701958 
1.6741424617285187715,-2668631.3517178501934,793.68000171438859525,16.980172234059693892,0.94905486762627622177,-5.6825838571758575668
    1580        0.001    1.6741425    16.980172    658.45566   -2669289.8   -2668631.4       793.68   0.94905487   -5.6825839 
1.6841424617285187804,-2668631.3526110039093,787.97514641720431428,17.0020231870300087,0.99240114230719544963,-5.6873705544693287095
    1590        0.001    1.6841425    17.002023      659.303   -2669290.7   -2668631.4    787.97515   0.99240114   -5.6873706 
1.6941424617285187892,-2668631.353152168449,785.54332901944985679,16.998332804195733559,1.043202288614935247,-5.6261632016891409691
    1600        0.001    1.6941425    16.998333    659.15989   -2669290.5   -2668631.4    785.54333    1.0432023   -5.6261632 
1.7041424617285187981,-2668631.3521551708691,784.59781337187860117,16.956972638520198871,0.81143955745482432285,-5.4107401255112854699
    1610        0.001    1.7041425    16.956973    657.55603   -2669288.9   -2668631.4    784.59781   0.81143956   -5.4107401 
1.714142461728518807,-2668631.3517000917345,784.34557559856875741,16.905162652942159696,0.99765860765736380511,-5.257450199464755336
    1620        0.001    1.7141425    16.905163    655.54695   -2669286.9   -2668631.4    784.34558   0.99765861   -5.2574502 
1.7241424617285185938,-2668631.3518637903035,784.16282224706242232,16.861300286178710905,1.0764839991625230198,-5.1908628052287255628
    1630        0.001    1.7241425      16.8613    653.84606   -2669285.2   -2668631.4    784.16282     1.076484   -5.1908628 
1.7341424617285188248,-2668631.3523183395155,783.14809412932959276,16.82119930006329156,1.0542163835703630692,-5.1753761697101392514
    1640        0.001    1.7341425    16.821199    652.29102   -2669283.6   -2668631.4    783.14809    1.0542164   -5.1753762 
1.7441424617285186116,-2668631.3512627333403,783.67343210326487224,16.779326209483542698,0.92257439613871328188,-5.2125360557390685301
    1650        0.001    1.7441425    16.779326    650.66727     -2669282   -2668631.4    783.67343    0.9225744   -5.2125361 
1.7541424617285186205,-2668631.3507637763396,785.99070603096367904,16.76814440474010226,0.70162073431063487483,-5.332278191188933647
    1660        0.001    1.7541425    16.768144    650.23367   -2669281.6   -2668631.4    785.99071   0.70162073   -5.3322782 
1.7641424617285186294,-2668631.351601047907,785.14742408727499878,16.807184792237269022,0.76888663580565697053,-5.5070803615940819853
    1670        0.001    1.7641425    16.807185    651.74757   -2669283.1   -2668631.4    785.14742   0.76888664   -5.5070804 
1.7741424617285186383,-2668631.3515001619235,782.10912090614237968,16.875968885875249015,0.77388787239730960632,-5.519824918785442236
    1680        0.001    1.7741425    16.875969    654.41487   -2669285.8   -2668631.4    782.10912   0.77388787   -5.5198249 
1.7841424617285186471,-2668631.3517495500855,779.69811424393526522,16.965938463099359268,0.80022512205237583682,-5.5364426868931237991
    1690        0.001    1.7841425    16.965938    657.90371   -2669289.3   -2668631.4    779.69811   0.80022512   -5.5364427 
1.794142461728518656,-2668631.3528533726931,776.61860701270381924,17.061875284277810749,0.84336947666233608167,-5.6211856873382881616
    1700        0.001    1.7941425    17.061875    661.62394     -2669293   -2668631.4    776.61861   0.84336948   -5.6211857 
1.8041424617285186649,-2668631.3540840768255,771.99596713727021324,17.122650356283632078,0.86414784084480988913,-5.6352954061526077112
    1710        0.001    1.8041425     17.12265    663.98067   -2669295.3   -2668631.4    771.99597   0.86414784   -5.6352954 
1.8141424617285186738,-2668631.3539032740518,769.65788983818197266,17.106826532446916644,0.84035312629532121775,-5.4977307438907168091
    1720        0.001    1.8141425    17.106827    663.36705   -2669294.7   -2668631.4    769.65789   0.84035313   -5.4977307 
1.8241424617285186827,-2668631.3524003452621,771.4424894794337888,17.019713416892756186,0.73499223563952631455,-5.4483194461865362968
    1730        0.001    1.8241425    17.019713    659.98899   -2669291.3   -2668631.4    771.44249   0.73499224   -5.4483194 
1.8341424617285186915,-2668631.3510164027102,774.26103426497570581,16.917578972131863679,0.61249534501600677583,-5.4821555167596898173
    1740        0.001    1.8341425    16.917579    656.02843   -2669287.4   -2668631.4    774.26103   0.61249535   -5.4821555 
1.8441424617285187004,-2668631.3501268276013,774.32114221085498684,16.85958181963135516,0.81338284499118018722,-5.5807539319964023505
    1750        0.001    1.8441425    16.859582    653.77942   -2669285.1   -2668631.4    774.32114   0.81338284   -5.5807539 
1.8541424617285187093,-2668631.3513538199477,771.32094384956644717,16.872345331763821008,0.88236781694840527024,-5.7238777361901336249
    1760        0.001    1.8541425    16.872345    654.27436   -2669285.6   -2668631.4    771.32094   0.88236782   -5.7238777 
1.8641424617285187182,-2668631.3519471879117,770.93476933101953819,16.921521519469006734,0.75515695217093559144,-5.8868169673486008264
    1770        0.001    1.8641425    16.921522    656.18131   -2669287.5   -2668631.4    770.93477   0.75515695    -5.886817 
1.8741424617285187271,-2668631.3524149446748,771.00381592277688014,16.977936317597720262,0.7612849063040477704,-6.0321541599508403664
    1780        0.001    1.8741425    16.977936    658.36896   -2669289.7   -2668631.4    771.00382   0.76128491   -6.0321542 
1.884142461728518736,-2668631.3527905535884,771.0494160960172394,17.02249366231684391,0.70479740895950326873,-6.138626924738322721
    1790        0.001    1.8841425    17.022494     660.0968   -2669291.4   -2668631.4    771.04942   0.70479741   -6.1386269 
1.8941424617285187448,-2668631.3525496618822,771.44471627072232423,17.042607979492171211,0.74430301928432152092,-6.1506969572842686844
    1800        0.001    1.8941425    17.042608    660.87679   -2669292.2   -2668631.4    771.44472   0.74430302    -6.150697 
1.9041424617285187537,-2668631.3530228082091,771.48124562884436273,17.040304160050215643,0.68083354026718145846,-5.9729156758886299272
    1810        0.001    1.9041425    17.040304    660.78745   -2669292.1   -2668631.4    771.48125   0.68083354   -5.9729157 
1.9141424617285187626,-2668631.3518999363296,772.0704126829781444,17.010894429019277396,0.67727296344494902769,-5.8467595930773823554
    1820        0.001    1.9141425    17.010894    659.64701     -2669291   -2668631.4    772.07041   0.67727296   -5.8467596 
1.9241424617285187715,-2668631.3514252034947,771.90576779089496995,16.986616450029032421,0.6074740096910968834,-5.8182680121916678928
    1830        0.001    1.9241425    16.986616    658.70556   -2669290.1   -2668631.4    771.90577   0.60747401    -5.818268 
1.9341424617285187804,-2668631.3515960844234,769.94751594984995791,16.988330440113710296,0.62047543483318268187,-5.8825730172519525851
    1840        0.001    1.9341425     16.98833    658.77202   -2669290.1   -2668631.4    769.94752   0.62047543    -5.882573 
1.9441424617285187892,-2668631.3516959110275,767.88056702782569118,17.012649184476124731,0.70800180376692900541,-5.7329742542493944413
    1850        0.001    1.9441425    17.012649    659.71505   -2669291.1   -2668631.4    767.88057    0.7080018   -5.7329743 
1.9541424617285185761,-2668631.3518783464096,765.69701222117544148,17.054803287279614921,0.68668069912228513196,-5.6170706922888387069
    1860        0.001    1.9541425    17.054803     661.3497   -2669292.7   -2668631.4    765.69701    0.6866807   -5.6170707 
1.964142461728518807,-2668631.352837045677,762.78551536967290758,17.101569520352072118,0.72500113631717433282,-5.5666056965267607382
    1870        0.001    1.9641425     17.10157     663.1632   -2669294.5   -2668631.4    762.78552   0.72500114   -5.5666057 
1.9741424617285185938,-2668631.3531731548719,761.24215258146932683,17.119912892358442491,0.71518168209984667172,-5.6024724177885918408
    1880        0.001    1.9741425    17.119913    663.87451   -2669295.2   -2668631.4    761.24215   0.71518168   -5.6024724 
1.9841424617285188248,-2668631.3526554894634,761.70639689406073103,17.096169012480338267,0.71658195084771358907,-5.7156112644233241227
    1890        0.001    1.9841425    17.096169    662.95378   -2669294.3   -2668631.4     761.7064   0.71658195   -5.7156113 
1.9941424617285186116,-2668631.3522238917649,763.32902878222307663,17.047053438720126906,0.69258345372441909582,-5.8454605314537317895
    1900        0.001    1.9941425    17.047053    661.04918   -2669292.4   -2668631.4    763.32903   0.69258345   -5.8454605 
2.0041424617285188425,-2668631.3514214078896,766.07521442632651087,16.995358084665252107,0.51994018001618602653,-5.8293342146110829205
    1910        0.001    2.0041425    16.995358    659.04454   -2669290.4   -2668631.4    766.07521   0.51994018   -5.8293342 
2.0141424617285186294,-2668631.3511739606038,765.23673623639285779,16.970665906301906745,0.54911586578359650179,-5.8227791372388617575
    1920        0.001    2.0141425    16.970666    658.08703   -2669289.4   -2668631.4    765.23674   0.54911587   -5.8227791 
2.0241424617285188603,-2668631.3511486151256,761.00011060675467434,16.983591980685798006,0.60596104002096939922,-5.8168061500381051943
    1930        0.001    2.0241425    16.983592    658.58827   -2669289.9   -2668631.4    761.00011   0.60596104   -5.8168062 
2.0341424617285186471,-2668631.352663946338,755.20539172710789444,17.024068329612077832,0.507322861830405758,-5.8054848292170726509
    1940        0.001    2.0341425    17.024068    660.15786   -2669291.5   -2668631.4    755.20539   0.50732286   -5.8054848 
2.0441424617285188781,-2668631.3542568199337,750.92761906441091924,17.034823063020454015,0.54902707079384527322,-5.7903979354747558972
    1950        0.001    2.0441425    17.034823    660.57491   -2669291.9   -2668631.4    750.92762   0.54902707   -5.7903979 
2.0541424617285186649,-2668631.3532956726849,751.28323477630749494,16.96238480876862198,0.53324216701106674776,-5.7813168574266677879
    1960        0.001    2.0541425    16.962385     657.7659   -2669289.1   -2668631.4    751.28323   0.53324217   -5.7813169 
2.0641424617285188958,-2668631.3508726409636,756.19413136838375067,16.838081138072134024,0.45903636035315198427,-5.7900829279621817136
    1970        0.001    2.0641425    16.838081    652.94567   -2669284.3   -2668631.4    756.19413   0.45903636   -5.7900829 
2.0741424617285186827,-2668631.3493366590701,760.37520044255086304,16.74962391420082497,0.54236907077962248636,-5.8237547288802229417
    1980        0.001    2.0741425    16.749624    649.51548   -2669280.9   -2668631.3     760.3752   0.54236907   -5.8237547 
2.0841424617285184695,-2668631.3497686362825,759.32321569401176475,16.75681650041354942,0.53531305910316595575,-5.7013225658549604447
    1990        0.001    2.0841425    16.756817    649.79439   -2669281.1   -2668631.3    759.32322   0.53531306   -5.7013226 
2.0941424617285187004,-2668631.3512711063959,753.53940979830372271,16.846535866462215125,0.56819292620642081193,-5.5990903956352813253
    2000        0.001    2.0941425    16.846536    653.27352   -2669284.6   -2668631.4    753.53941   0.56819293   -5.5990904 
Loop time of 30.9747 on 8 procs for 500 steps with 300000 atoms

Performance: 1.395 ns/day, 17.208 hours/ns, 16.142 timesteps/s
99.3% CPU use with 8 MPI tasks x 1 OpenMP threads

MPI task timing breakdown:
Section |  min time  |  avg time  |  max time  |%varavg| %total
---------------------------------------------------------------
Pair    | 28.476     | 28.996     | 29.379     |   4.9 | 93.61
Neigh   | 0.25976    | 0.26754    | 0.27908    |   1.1 |  0.86
Comm    | 0.3503     | 0.74105    | 1.2773     |  31.9 |  2.39
Output  | 0.12471    | 0.12654    | 0.12682    |   0.2 |  0.41
Modify  | 0.60384    | 0.61099    | 0.61788    |   0.8 |  1.97
Other   |            | 0.2324     |            |       |  0.75

Nlocal:    37500 ave 37901 max 37114 min
Histogram: 2 0 1 1 0 0 1 0 2 1
Nghost:    22592.5 ave 22978 max 22192 min
Histogram: 1 2 0 1 0 0 1 1 0 2
Neighs:    1.20001e+06 ave 1.21992e+06 max 1.17693e+06 min
Histogram: 1 0 1 2 0 0 1 1 1 1

Total # of neighbors = 9600089
Ave neighs/atom = 32.0003
Neighbor list builds = 8
Dangerous builds = 0
System init for write_data ...
Setting up Verlet run ...
  Unit style    : metal
  Current step  : 2000
  Time step     : 0.001
Per MPI rank memory allocation (min/avg/max) = 25.12 | 25.12 | 25.12 Mbytes
Step Dt Time Temp KinEng PotEng TotEng Press c_kemax c_temax 
    2000        0.001    2.0941425    16.846536    653.27352   -2669284.6   -2668631.4    753.53941   0.56819293   -5.5990904 
2.1041424617285184873,-2668631.3527942411602,747.60184360178243423,16.959698082682042042,0.6507394443347783719,-5.5891397629084753618
    2010        0.001    2.1041425    16.959698    657.66172     -2669289   -2668631.4    747.60184   0.65073944   -5.5891398 
2.1141424617285187182,-2668631.3531164447777,745.06990683977949175,17.037828740079120848,0.63563011819222736687,-5.6574951861764235517
    2020        0.001    2.1141425    17.037829    660.69146     -2669292   -2668631.4    745.06991   0.63563012   -5.6574952 
2.124142461728518505,-2668631.3529131868854,745.70195981785730055,17.062320184465548323,0.53245375294638286334,-5.7701248854460560622
    2030        0.001    2.1241425     17.06232    661.64119     -2669293   -2668631.4    745.70196   0.53245375   -5.7701249 
2.134142461728518736,-2668631.3522583120503,746.92483306447400082,17.041242189540380281,0.39455656239592507006,-5.8902972771286918885
    2040        0.001    2.1341425    17.041242    660.82383   -2669292.2   -2668631.4    746.92483   0.39455656   -5.8902973 
2.1441424617285185228,-2668631.3514797259122,746.7238459344163175,16.998824867206515421,0.40344667201261785738,-5.9899237020849689372
    2050        0.001    2.1441425    16.998825    659.17897   -2669290.5   -2668631.4    746.72385   0.40344667   -5.9899237 
2.1541424617285187537,-2668631.3513152659871,746.28202905400928557,16.961896918264312006,0.49402755080771959539,-6.0542504724337300459
    2060        0.001    2.1541425    16.961897    657.74698   -2669289.1   -2668631.4    746.28203   0.49402755   -6.0542505 
2.1641424617285185406,-2668631.3511419626884,746.49035242433274107,16.941303981725464922,0.47158281865242174247,-6.065169511176250694
    2070        0.001    2.1641425    16.941304    656.94843   -2669288.3   -2668631.4    746.49035   0.47158282   -6.0651695 
2.1741424617285187715,-2668631.3510155663826,746.30360639094487851,16.94490423703346238,0.43025778578411383313,-6.0340553437555897176
    2080        0.001    2.1741425    16.944904    657.08804   -2669288.4   -2668631.4    746.30361   0.43025779   -6.0340553 
2.1841424617285185583,-2668631.3511796882376,745.06654070342108298,16.97839816826441961,0.5712211527030685021,-5.9630893816317005474
    2090        0.001    2.1841425    16.978398    658.38687   -2669289.7   -2668631.4    745.06654   0.57122115   -5.9630894 
2.1941424617285187892,-2668631.3522560996935,741.74277403350447457,17.030748334653640796,0.62940347523276474195,-5.9058273330128221446
    2100        0.001    2.1941425    17.030748     660.4169   -2669291.8   -2668631.4    741.74277   0.62940348   -5.9058273 
2.2041424617285185761,-2668631.353393740952,738.42699295142642768,17.058648445676126926,0.60616448706571390836,-5.8780203078552917262
    2110        0.001    2.2041425    17.058648    661.49881   -2669292.9   -2668631.4    738.42699   0.60616449   -5.8780203 
2.214142461728518807,-2668631.3528820252977,739.02816667308150045,17.020822815159657893,0.51426335620873198096,-5.8832002891379087117
    2120        0.001    2.2141425    17.020823    660.03201   -2669291.4   -2668631.4    739.02817   0.51426336   -5.8832003 
2.2241424617285185938,-2668631.3513299492188,743.33453274998100824,16.934034294587572589,0.36066709459957069228,-5.8188130711606831369
    2130        0.001    2.2241425    16.934034    656.66653     -2669288   -2668631.4    743.33453   0.36066709   -5.8188131 
2.2341424617285188248,-2668631.3497613738291,747.99536936247602625,16.858864392407593158,0.32663825727718837078,-5.7539609480947806475
    2140        0.001    2.2341425    16.858864     653.7516   -2669285.1   -2668631.3    747.99537   0.32663826   -5.7539609 
2.2441424617285186116,-2668631.3497680048458,748.54817121484461495,16.853185059518978051,0.41610065025713333098,-5.7237274040154479948
    2150        0.001    2.2441425    16.853185    653.53136   -2669284.9   -2668631.3    748.54817   0.41610065   -5.7237274 
2.2541424617285188425,-2668631.3508514552377,744.61336496419050945,16.921140536900026063,0.42032711457489591034,-5.7439275287797162406
    2160        0.001    2.2541425    16.921141    656.16654   -2669287.5   -2668631.4    744.61336   0.42032711   -5.7439275 
2.2641424617285186294,-2668631.3523724423721,739.3358504154240336,17.01941215840919952,0.48350823912844792529,-5.8179524523160797145
    2170        0.001    2.2641425    17.019412    659.97731   -2669291.3   -2668631.4    739.33585   0.48350824   -5.8179525 
2.2741424617285188603,-2668631.3534598574042,734.91151898454609181,17.086283888500268802,0.45625245640395117874,-5.9353013928711835234
    2180        0.001    2.2741425    17.086284    662.57045   -2669293.9   -2668631.4    734.91152   0.45625246   -5.9353014 
2.2841424617285186471,-2668631.353460047394,734.69781975243824945,17.076228095718800404,0.41391221743960304735,-6.0319513190155351623
    2190        0.001    2.2841425    17.076228    662.18051   -2669293.5   -2668631.4    734.69782   0.41391222   -6.0319513 
2.2941424617285188781,-2668631.3521628612652,739.38868174936078503,16.989251937257979108,0.52809367170361709576,-5.9688455480108197904
    2200        0.001    2.2941425    16.989252    658.80775   -2669290.2   -2668631.4    739.38868   0.52809367   -5.9688455 
2.3041424617285186649,-2668631.3503301199526,745.02890001253615537,16.876596050681921923,0.5385054637399504518,-5.8791057998853375466
    2210        0.001    2.3041425    16.876596    654.43919   -2669285.8   -2668631.4     745.0289   0.53850546   -5.8791058 
2.3141424617285188958,-2668631.349189533852,747.59457150148432447,16.810208353163620387,0.44454136113881775882,-5.7684175251242342242
    2220        0.001    2.3141425    16.810208    651.86482   -2669283.2   -2668631.3    747.59457   0.44454136   -5.7684175 
2.3241424617285186827,-2668631.3499358785339,744.66332425872303702,16.832190457410160178,0.44668950944065410891,-5.6992649718394519098
    2230        0.001    2.3241425     16.83219    652.71724   -2669284.1   -2668631.3    744.66332   0.44668951    -5.699265 
2.3341424617285184695,-2668631.3517847554758,738.65252932979433353,16.916330089602674036,0.49675597214006611546,-5.6717280865649142285
    2240        0.001    2.3341425     16.91633       655.98   -2669287.3   -2668631.4    738.65253   0.49675597   -5.6717281 
2.3441424617285187004,-2668631.352854069788,734.95719145546536311,16.995281383762524285,0.46608568276245615492,-5.6762228847356315242
    2250        0.001    2.3441425    16.995281    659.04156   -2669290.4   -2668631.4    734.95719   0.46608568   -5.6762229 
2.3541424617285189314,-2668631.3528053979389,735.38230563489400993,17.025974080362971108,0.42001945929739853414,-5.7025870496895203487
    2260        0.001    2.3541425    17.025974    660.23176   -2669291.6   -2668631.4    735.38231   0.42001946    -5.702587 
2.3641424617285187182,-2668631.3520915159024,736.95359594431613459,17.010417923732269685,0.40812468826345027484,-5.7424079340463940468
    2270        0.001    2.3641425    17.010418    659.62853     -2669291   -2668631.4     736.9536   0.40812469   -5.7424079 
2.374142461728518505,-2668631.3514923029579,736.28611799398731819,16.975289782884232181,0.36711283919447729174,-5.7902331508118738412
    2280        0.001    2.3741425     16.97529    658.26633   -2669289.6   -2668631.4    736.28612   0.36711284   -5.7902332 
2.384142461728518736,-2668631.351034345571,734.17165194790243277,16.94465376348351171,0.43718843388203038058,-5.8452335291224422065
    2290        0.001    2.3841425    16.944654    657.07833   -2669288.4   -2668631.4    734.17165   0.43718843   -5.8452335 
2.3941424617285185228,-2668631.3507820563391,732.40379234007309606,16.936041387566863392,0.44354558539201749401,-5.8738880493787508641
    2300        0.001    2.3941425    16.936041    656.74436   -2669288.1   -2668631.4    732.40379   0.44354559    -5.873888 
2.4041424617285187537,-2668631.3510563424788,730.10079215411712994,16.956449440813500473,0.35877786052381721582,-5.8897987040804045122
    2310        0.001    2.4041425    16.956449    657.53574   -2669288.9   -2668631.4    730.10079   0.35877786   -5.8897987 
2.4141424617285185406,-2668631.3517465274781,727.67974196901298001,16.993373304215133146,0.30499894550240957969,-5.8561050302216424157
    2320        0.001    2.4141425    16.993373    658.96757   -2669290.3   -2668631.4    727.67974   0.30499895    -5.856105 
2.4241424617285187715,-2668631.3520165141672,726.19965427765248478,17.02092328020178158,0.33544630121401558531,-5.7984640063755854555
    2330        0.001    2.4241425    17.020923     660.0359   -2669291.4   -2668631.4    726.19965    0.3354463    -5.798464 
2.4341424617285185583,-2668631.351806868799,724.94029605384309889,17.026532226250104429,0.3452467388083962363,-5.7681251000394810902
    2340        0.001    2.4341425    17.026532    660.25341   -2669291.6   -2668631.4     724.9403   0.34524674   -5.7681251 
2.4441424617285187892,-2668631.3515857099555,723.14196322220527691,17.015661853781548274,0.30352701748093918743,-5.767287384928356353
    2350        0.001    2.4441425    17.015662    659.83188   -2669291.2   -2668631.4    723.14196   0.30352702   -5.7672874 
2.4541424617285185761,-2668631.3513848530129,720.69468352344483719,16.995591870853406391,0.27984914272921518341,-5.7936972940993305414
    2360        0.001    2.4541425    16.995592     659.0536   -2669290.4   -2668631.4    720.69468   0.27984914   -5.7936973 
2.464142461728518807,-2668631.3510766588151,719.76299253666502409,16.973774559074229273,0.31094387938804562976,-5.8374413920768217778
    2370        0.001    2.4641425    16.973775    658.20757   -2669289.6   -2668631.4    719.76299   0.31094388   -5.8374414 
2.4741424617285185938,-2668631.3511048681103,720.28568482939454043,16.959420950224895819,0.41744426268255885315,-5.8842438499589313494
    2380        0.001    2.4741425    16.959421    657.65097     -2669289   -2668631.4    720.28568   0.41744426   -5.8842438 
2.4841424617285188248,-2668631.3509447053075,720.62755854362092123,16.954537756183114539,0.44925933786658717173,-5.923689227714702632
    2390        0.001    2.4841425    16.954538    657.46161   -2669288.8   -2668631.4    720.62756   0.44925934   -5.9236892 
2.4941424617285186116,-2668631.350782147143,720.37543856543834409,16.965175182230535,0.35254754502510204928,-5.9518104038409793688
    2400        0.001    2.4941425    16.965175    657.87411   -2669289.2   -2668631.4    720.37544   0.35254755   -5.9518104 
2.5041424617285188425,-2668631.3513095341623,717.71581761789923348,16.99391880396512633,0.36779502881927061964,-5.9715245133028620472
    2410        0.001    2.5041425    16.993919    658.98873   -2669290.3   -2668631.4    717.71582   0.36779503   -5.9715245 
2.5141424617285186294,-2668631.3520580488257,714.10628237715923206,17.020536240809708062,0.37953785474073020723,-5.9413795319707949361
    2420        0.001    2.5141425    17.020536    660.02089   -2669291.4   -2668631.4    714.10628   0.37953785   -5.9413795 
2.5241424617285188603,-2668631.3525232188404,712.65712943435164561,17.01537612918908593,0.43239288701893963118,-5.9108114126806050592
    2430        0.001    2.5241425    17.015376     659.8208   -2669291.2   -2668631.4    712.65713   0.43239289   -5.9108114 
2.5341424617285186471,-2668631.3517939555459,713.78232407408381732,16.964525885808331651,0.43164202857879224728,-5.9136387143661108823
    2440        0.001    2.5341425    16.964526    657.84893   -2669289.2   -2668631.4    713.78232   0.43164203   -5.9136387 
2.5441424617285188781,-2668631.3505051825196,716.29844140022350985,16.896181256971267715,0.36110340264944523758,-5.9043707655961785719
    2450        0.001    2.5441425    16.896181    655.19867   -2669286.5   -2668631.4    716.29844    0.3611034   -5.9043708 
2.5541424617285186649,-2668631.349987658672,718.9937979476410419,16.858277921221098694,0.28066492800067177615,-5.860211498503451466
    2460        0.001    2.5541425    16.858278    653.72886   -2669285.1   -2668631.3     718.9938   0.28066493   -5.8602115 
2.5641424617285188958,-2668631.3502235170454,719.22451247226035775,16.87372420877204604,0.3380390629597223584,-5.8750490462328830432
    2470        0.001    2.5641425    16.873724    654.32783   -2669285.7   -2668631.4    719.22451   0.33803906    -5.875049 
2.5741424617285186827,-2668631.3512381212786,716.33281275439128422,16.931888042878945555,0.36032906987590768155,-5.9506425187375739938
    2480        0.001    2.5741425    16.931888     656.5833   -2669287.9   -2668631.4    716.33281   0.36032907   -5.9506425 
2.5841424617285184695,-2668631.3523479443975,712.5134754483258348,16.991890539329080667,0.3018129668663709908,-6.0679147796570207518
    2490        0.001    2.5841425    16.991891    658.91007   -2669290.3   -2668631.4    712.51348   0.30181297   -6.0679148 
2.5941424617285187004,-2668631.3525132765062,710.92121084313373558,17.010790623821996803,0.25677027646074918055,-5.9121094961133735524
    2500        0.001    2.5941425    17.010791    659.64298     -2669291   -2668631.4    710.92121   0.25677028   -5.9121095 
Loop time of 30.0915 on 8 procs for 500 steps with 300000 atoms

Performance: 1.436 ns/day, 16.718 hours/ns, 16.616 timesteps/s
99.2% CPU use with 8 MPI tasks x 1 OpenMP threads

MPI task timing breakdown:
Section |  min time  |  avg time  |  max time  |%varavg| %total
---------------------------------------------------------------
Pair    | 27.971     | 28.414     | 28.717     |   4.0 | 94.42
Neigh   | 0.064601   | 0.066147   | 0.069243   |   0.5 |  0.22
Comm    | 0.3409     | 0.64884    | 1.0957     |  27.1 |  2.16
Output  | 0.10982    | 0.11164    | 0.11192    |   0.2 |  0.37
Modify  | 0.60415    | 0.61263    | 0.6183     |   0.7 |  2.04
Other   |            | 0.2384     |            |       |  0.79

Nlocal:    37500 ave 37880 max 37213 min
Histogram: 1 1 2 0 0 2 0 1 0 1
Nghost:    22592.5 ave 22878 max 22213 min
Histogram: 1 0 1 0 2 0 0 2 1 1
Neighs:    1.20001e+06 ave 1.22111e+06 max 1.1846e+06 min
Histogram: 1 1 1 1 1 1 1 0 0 1

Total # of neighbors = 9600092
Ave neighs/atom = 32.0003
Neighbor list builds = 2
Dangerous builds = 0
System init for write_data ...
Setting up Verlet run ...
  Unit style    : metal
  Current step  : 2500
  Time step     : 0.001
Per MPI rank memory allocation (min/avg/max) = 25.12 | 25.12 | 25.12 Mbytes
Step Dt Time Temp KinEng PotEng TotEng Press c_kemax c_temax 
    2500        0.001    2.5941425    17.010791    659.64298     -2669291   -2668631.4    710.92121   0.25677028   -5.9121095 
2.6041424617285184873,-2668631.3515866296366,712.65064552789135632,16.98221193653023775,0.28740567538151556848,-5.7139052867413475667
    2510        0.001    2.6041425    16.982212    658.53476   -2669289.9   -2668631.4    712.65065   0.28740568   -5.7139053 
2.6141424617285187182,-2668631.3506171354093,715.07921040444205119,16.94077680252408058,0.28638301064370369486,-5.5817376739962769605
    2520        0.001    2.6141425    16.940777    656.92799   -2669288.3   -2668631.4    715.07921   0.28638301   -5.5817377 
2.624142461728518505,-2668631.3503325846978,715.60793758543331933,16.924646126860352524,0.3048960078692767306,-5.5383135379784391716
    2530        0.001    2.6241425    16.924646    656.30248   -2669287.7   -2668631.4    715.60794   0.30489601   -5.5383135 
2.634142461728518736,-2668631.3505219384097,714.59530689580185481,16.947292874038016208,0.31587463996842046754,-5.5826692391888208533
    2540        0.001    2.6341425    16.947293    657.18067   -2669288.5   -2668631.4    714.59531   0.31587464   -5.5826692 
2.6441424617285185228,-2668631.3510219878517,712.57781493424863584,17.001260680634459277,0.26463878189597223045,-5.6891007384716267836
    2550        0.001    2.6441425    17.001261    659.27343   -2669290.6   -2668631.4    712.57781   0.26463878   -5.6891007 
2.6541424617285187537,-2668631.3519247169606,709.25232569277807215,17.064180797952616331,0.2701699229921928902,-5.8210944656076684112
    2560        0.001    2.6541425    17.064181    661.71334   -2669293.1   -2668631.4    709.25233   0.27016992   -5.8210945 
2.6641424617285185406,-2668631.3525199485011,706.93565200454690967,17.101259459184515066,0.28033999435197315409,-5.9518107638720110231
    2570        0.001    2.6641425    17.101259    663.15117   -2669294.5   -2668631.4    706.93565   0.28033999   -5.9518108 
2.6741424617285187715,-2668631.3521951371804,707.45530205679961,17.08964748305685788,0.2534459952062178556,-6.0106883487373554686
    2580        0.001    2.6741425    17.089647    662.70088   -2669294.1   -2668631.4     707.4553     0.253446   -6.0106883 
2.6841424617285185583,-2668631.3514242745005,709.30340424799987886,17.040703241263450707,0.27456454184709944144,-5.9709310875350567471
    2590        0.001    2.6841425    17.040703    660.80293   -2669292.2   -2668631.4     709.3034   0.27456454   -5.9709311 
2.6941424617285187892,-2668631.3507871814072,710.24076746512560021,16.984143187208267989,0.40192039822501135493,-5.9285031813636743792
[...]
    7340        0.001    7.4341425    16.961258    657.72221   -2669289.1   -2668631.4     670.0182  0.026256027   -5.9885637 
7.4441424617285179011,-2668631.3509125076234,669.28672349025862331,16.995302024865754476,0.031382830577523834759,-5.99241270759116329
    7350        0.001    7.4441425    16.995302    659.04236   -2669290.4   -2668631.4    669.28672  0.031382831   -5.9924127 
7.4541424617285185761,-2668631.3513125400059,668.21968257654555146,17.031522713578933548,0.035042912021226356456,-6.0273561810073816858
    7360        0.001    7.4541425    17.031523    660.44693   -2669291.8   -2668631.4    668.21968  0.035042912   -6.0273562 
7.4641424617285183629,-2668631.3515357663855,667.29907141179080554,17.054321929429633542,0.049727005442058436202,-6.0846198554234129929
    7370        0.001    7.4641425    17.054322    661.33103   -2669292.7   -2668631.4    667.29907  0.049727005   -6.0846199 
7.4741424617285181498,-2668631.3514485727064,666.89186987755647351,17.05511934036934818,0.052803484033123328223,-6.0952614401972446956
    7380        0.001    7.4741425    17.055119    661.36196   -2669292.7   -2668631.4    666.89187  0.052803484   -6.0952614 
7.4841424617285179366,-2668631.3511191676371,667.07570153278038561,17.037372171475283267,0.041950319828552469492,-6.0724407629967975808
    7390        0.001    7.4841425    17.037372    660.67376     -2669292   -2668631.4     667.0757   0.04195032   -6.0724408 
7.4941424617285186116,-2668631.3507446208969,667.55700809529810158,17.014084950358256521,0.030385023990722851567,-6.0628246343887175485
    7400        0.001    7.4941425    17.014085    659.77073   -2669291.1   -2668631.4    667.55701  0.030385024   -6.0628246 
7.5041424617285183984,-2668631.3505257484503,667.7089549498280121,17.000134521971556723,0.029165044464951477704,-6.0678865426720669518
    7410        0.001    7.5041425    17.000135    659.22976   -2669290.6   -2668631.4    667.70895  0.029165044   -6.0678865 
7.5141424617285181853,-2668631.3505722125992,667.14544051623556697,17.004206838825947301,0.031865140387281373768,-6.0834807845577492103
    7420        0.001    7.5141425    17.004207    659.38767   -2669290.7   -2668631.4    667.14544   0.03186514   -6.0834808 
7.5241424617285179721,-2668631.3508556336164,665.99280042121927181,17.024451680064117909,0.03741469194680133864,-6.0712256106990745153
    7430        0.001    7.5241425    17.024452    660.17273   -2669291.5   -2668631.4     665.9928  0.037414692   -6.0712256 
7.5341424617285186471,-2668631.3512344812043,664.63584185326715215,17.049652492281406779,0.035091128629384689408,-6.0384036875642381759
    7440        0.001    7.5341425    17.049652    661.14996   -2669292.5   -2668631.4    664.63584  0.035091129   -6.0384037 
7.544142461728518434,-2668631.3515131562017,663.50185268827397067,17.064849944200563669,0.026384090946760592467,-6.015414884496814274
    7450        0.001    7.5441425     17.06485    661.73929   -2669293.1   -2668631.4    663.50185  0.026384091   -6.0154149 
7.5541424617285182208,-2668631.3515192619525,663.00501822987996547,17.05919697246662281,0.025757350253100674137,-6.0077773398838481
    7460        0.001    7.5541425    17.059197    661.52008   -2669292.9   -2668631.4    663.00502   0.02575735   -6.0077773 
7.5641424617285180076,-2668631.3512434903532,663.34217149798882929,17.032470909456101538,0.023418119635610992052,-6.0180095900559633648
    7470        0.001    7.5641425    17.032471     660.4837   -2669291.8   -2668631.4    663.34217   0.02341812   -6.0180096 
7.5741424617285186827,-2668631.3508379822597,664.19092790655622593,16.995493954637680645,0.028289154115602895695,-6.0447650683022233764
    7480        0.001    7.5741425    16.995494    659.04981   -2669290.4   -2668631.4    664.19093  0.028289154   -6.0447651 
7.5841424617285184695,-2668631.3505111853592,665.02255166178792933,16.964242974235595796,0.028267321699875821994,-6.0830406720493970241
    7490        0.001    7.5841425    16.964243    657.83796   -2669289.2   -2668631.4    665.02255  0.028267322   -6.0830407 
7.5941424617285182563,-2668631.3504352876917,665.52895786125759514,16.951535053645113038,0.03271037102510020167,-6.1257708409640194702
    7500        0.001    7.5941425    16.951535    657.34517   -2669288.7   -2668631.4    665.52896  0.032710371   -6.1257708 
Loop time of 29.1886 on 8 procs for 500 steps with 300000 atoms

Performance: 1.480 ns/day, 16.216 hours/ns, 17.130 timesteps/s
99.2% CPU use with 8 MPI tasks x 1 OpenMP threads

MPI task timing breakdown:
Section |  min time  |  avg time  |  max time  |%varavg| %total
---------------------------------------------------------------
Pair    | 27.218     | 27.633     | 27.874     |   3.6 | 94.67
Neigh   | 0          | 0          | 0          |   0.0 |  0.00
Comm    | 0.36031    | 0.60076    | 1.0198     |  24.4 |  2.06
Output  | 0.11053    | 0.11229    | 0.11256    |   0.2 |  0.38
Modify  | 0.60573    | 0.60705    | 0.60808    |   0.1 |  2.08
Other   |            | 0.2353     |            |       |  0.81

Nlocal:    37500 ave 37661 max 37381 min
Histogram: 1 1 0 1 3 0 1 0 0 1
Nghost:    22592.5 ave 22710 max 22432 min
Histogram: 1 0 0 1 0 3 1 0 1 1
Neighs:    1.20001e+06 ave 1.21294e+06 max 1.188e+06 min
Histogram: 1 0 2 1 0 1 1 0 1 1

Total # of neighbors = 9600093
Ave neighs/atom = 32.0003
Neighbor list builds = 0
Dangerous builds = 0
System init for write_data ...
Setting up Verlet run ...
  Unit style    : metal
  Current step  : 7500
  Time step     : 0.001
Per MPI rank memory allocation (min/avg/max) = 25.12 | 25.12 | 25.12 Mbytes
Step Dt Time Temp KinEng PotEng TotEng Press c_kemax c_temax 
    7500        0.001    7.5941425    16.951535    657.34517   -2669288.7   -2668631.4    665.52896  0.032710371   -6.1257708 
7.6041424617285180432,-2668631.3506313473918,665.75845445267930245,16.960404889357747038,0.033856423669538976418,-6.1482752364742854212
    7510        0.001    7.6041425    16.960405    657.68913     -2669289   -2668631.4    665.75845  0.033856424   -6.1482752 
7.61414246172851783,-2668631.350960528478,665.89738332458784953,16.9832809666865856,0.033447856426940758556,-6.1232853658031762834
    7520        0.001    7.6141425    16.983281    658.57621   -2669289.9   -2668631.4    665.89738  0.033447856   -6.1232854 
7.624142461728518505,-2668631.3512245379388,666.03819956128938884,17.007354255826498957,0.028780565297184902696,-6.0963575280845345716
    7530        0.001    7.6241425    17.007354    659.50972   -2669290.9   -2668631.4     666.0382  0.028780565   -6.0963575 
7.6341424617285182919,-2668631.3513023047708,666.15148529794942078,17.022185208460399508,0.027950410805551790389,-6.071067166739718246
    7540        0.001    7.6341425    17.022185    660.08484   -2669291.4   -2668631.4    666.15149  0.027950411   -6.0710672 
7.6441424617285180787,-2668631.3512011370622,666.21658487109766611,17.024573473772612431,0.027144658238417725127,-6.051249242595291733
    7550        0.001    7.6441425    17.024573    660.17745   -2669291.5   -2668631.4    666.21658  0.027144658   -6.0512492 
7.6541424617285178655,-2668631.3510412760079,666.0499521920329471,17.018284398925199952,0.027911032674124057473,-6.0406914025957805237
    7560        0.001    7.6541425    17.018284    659.93357   -2669291.3   -2668631.4    666.04995  0.027911033   -6.0406914 
7.6641424617285185406,-2668631.3509456599131,665.5801211902577279,17.009502143423048892,0.03667490882367909627,-6.042326861158436202
    7570        0.001    7.6641425    17.009502    659.59302   -2669290.9   -2668631.4    665.58012  0.036674909   -6.0423269 
7.6741424617285183274,-2668631.3509404142387,664.95597605225952975,17.002189226628381391,0.042297580130899202489,-6.0572432212395321827
    7580        0.001    7.6741425    17.002189    659.30944   -2669290.7   -2668631.4    664.95598   0.04229758   -6.0572432 
7.6841424617285181142,-2668631.3509985408746,664.39223514649052049,16.996695156242765279,0.038160124250356280973,-6.0841512029394015926
    7590        0.001    7.6841425    16.996695    659.09639   -2669290.4   -2668631.4    664.39224  0.038160124   -6.0841512 
7.6941424617285179011,-2668631.351048253011,664.08762954888857166,16.990923830277068873,0.025900949371450647518,-6.1195789900800843242
    7600        0.001    7.6941425    16.990924    658.87259   -2669290.2   -2668631.4    664.08763  0.025900949    -6.119579 
7.7041424617285185761,-2668631.3510325159878,664.1425187794421845,16.983045625829877423,0.025661772724506658888,-6.1080077505481629174
    7610        0.001    7.7041425    16.983046    658.56709   -2669289.9   -2668631.4    664.14252  0.025661773   -6.1080078 
7.7141424617285183629,-2668631.3509384719655,664.6874898414753261,16.973773750887364287,0.029276100980566023557,-6.1066159924110587909
    7620        0.001    7.7141425    16.973774    658.20754   -2669289.6   -2668631.4    664.68749  0.029276101    -6.106616 
7.7241424617285181498,-2668631.3507994860411,665.60346627459762203,16.966893702838298452,0.034523056340520684449,-6.1149480154273962995
    7630        0.001    7.7241425    16.966894    657.94075   -2669289.3   -2668631.4    665.60347  0.034523056    -6.114948 
7.7341424617285179366,-2668631.3506964552216,666.54000966974763287,16.967897836325430916,0.03106190411767668566,-6.1304595236278940362
    7640        0.001    7.7341425    16.967898    657.97969   -2669289.3   -2668631.4    666.54001  0.031061904   -6.1304595 
7.7441424617285186116,-2668631.3507396900095,667.14438527979950777,16.980625685012292081,0.030112332326099246899,-6.1496871050953849647
    7650        0.001    7.7441425    16.980626    658.47325   -2669289.8   -2668631.4    667.14439  0.030112332   -6.1496871 
7.7541424617285183984,-2668631.3509563617408,667.29900478280933385,17.003227464171281724,0.023111827167215145962,-6.1686511927386336041
    7660        0.001    7.7541425    17.003227     659.3497   -2669290.7   -2668631.4      667.299  0.023111827   -6.1686512 
7.7641424617285181853,-2668631.351274616085,667.07664516821739653,17.02706654180028778,0.023997682958350429611,-6.1833530540727634772
    7670        0.001    7.7641425    17.027067    660.27413   -2669291.6   -2668631.4    667.07665  0.023997683   -6.1833531 
7.7741424617285179721,-2668631.3515395694412,666.80380514817409221,17.039614478211611015,0.029913366920947207644,-6.1569565379659225712
    7680        0.001    7.7741425    17.039614    660.76071   -2669292.1   -2668631.4    666.80381  0.029913367   -6.1569565 
7.7841424617285186471,-2668631.351576524321,666.96055032246681549,17.03061942403738982,0.034368412097633332936,-6.103357226274753522
    7690        0.001    7.7841425    17.030619     660.4119   -2669291.8   -2668631.4    666.96055  0.034368412   -6.1033572 
7.794142461728518434,-2668631.3513203323819,667.84829777643210491,16.998813887677755474,0.026845082641638311205,-6.0496950484700109385
    7700        0.001    7.7941425    16.998814    659.17855   -2669290.5   -2668631.4     667.8483  0.026845083    -6.049695 
7.8041424617285182208,-2668631.3508719443344,669.2389222513633058,16.95444471015363419,0.026326815806755939769,-6.0048153198642699735
    7710        0.001    7.8041425    16.954445      657.458   -2669288.8   -2668631.4    669.23892  0.026326816   -6.0048153 
7.8141424617285180076,-2668631.350464285817,670.44343032102017332,16.915222529033044907,0.027181338857708105261,-5.9764663108087283661
    7720        0.001    7.8141425    16.915223    655.93705   -2669287.3   -2668631.4    670.44343  0.027181339   -5.9764663 
7.8241424617285186827,-2668631.3503414625302,670.84267100973397646,16.897081762712197417,0.025580502736445635131,-5.9694532122737404833
    7730        0.001    7.8241425    16.897082    655.23359   -2669286.6   -2668631.4    670.84267  0.025580503   -5.9694532 
7.8341424617285184695,-2668631.3505784585141,670.27975237181090051,16.904806011407167432,0.033055536790357824273,-5.9843224743237257712
    7740        0.001    7.8341425    16.904806    655.53312   -2669286.9   -2668631.4    670.27975  0.033055537   -5.9843225 
7.8441424617285182563,-2668631.3510230123065,668.99169482890556537,16.929146460775381655,0.031202472830176471164,-6.0171749490743371425
    7750        0.001    7.8441425    16.929146    656.47699   -2669287.8   -2668631.4    668.99169  0.031202473   -6.0171749 
7.8541424617285180432,-2668631.3514284291305,667.50806879072126776,16.952584517245593787,0.030903051850656924199,-6.0092950834821907691
    7760        0.001    7.8541425    16.952585    657.38587   -2669288.7   -2668631.4    667.50807  0.030903052   -6.0092951 
7.86414246172851783,-2668631.3515887744725,666.5770865600183015,16.959053568772368692,0.033526530657689242176,-6.0096299598762881189
    7770        0.001    7.8641425    16.959054    657.63672     -2669289   -2668631.4    666.57709  0.033526531     -6.00963 
7.874142461728518505,-2668631.3514079242013,666.61272294391028481,16.942336019199785824,0.024773257809274869257,-6.0251274700870860457
    7780        0.001    7.8741425    16.942336    656.98845   -2669288.3   -2668631.4    666.61272  0.024773258   -6.0251275 
7.8841424617285182919,-2668631.3509958847426,667.43291229137059872,16.909595696615202343,0.024323516635984646778,-6.052989416596169292
    7790        0.001    7.8841425    16.909596    655.71885   -2669287.1   -2668631.4    667.43291  0.024323517   -6.0529894 
7.8941424617285180787,-2668631.3505977881141,668.45728448875502181,16.877069446062268554,0.029127251491475495554,-6.0876143804601507981
    7800        0.001    7.8941425    16.877069    654.45755   -2669285.8   -2668631.4    668.45728  0.029127251   -6.0876144 
7.9041424617285178655,-2668631.3504296699539,669.17984621971015713,16.860478458829597059,0.031317701560742705613,-6.063998327226276075
    7810        0.001    7.9041425    16.860478    653.81419   -2669285.2   -2668631.4    669.17985  0.031317702   -6.0639983 
7.9141424617285185406,-2668631.3505490948446,669.41206971893711852,16.866613185096500871,0.03123334663533547384,-6.0111647303734576653
    7820        0.001    7.9141425    16.866613    654.05208   -2669285.4   -2668631.4    669.41207  0.031233347   -6.0111647 
7.9241424617285183274,-2668631.3508666981943,669.16611461734794375,16.890878832372816731,0.034261480811333268337,-5.9794687058425912696
    7830        0.001    7.9241425    16.890879    654.99305   -2669286.3   -2668631.4    669.16611  0.034261481   -5.9794687 
7.9341424617285181142,-2668631.3512033186853,668.69830686069360581,16.920791303985748044,0.031364490224190098855,-5.9769784234021186009
    7840        0.001    7.9341425    16.920791    656.15299   -2669287.5   -2668631.4    668.69831   0.03136449   -5.9769784 
7.9441424617285179011,-2668631.3513752226718,668.28477472208430754,16.943115879334467166,0.023879787712366862956,-6.0045766324135279035
    7850        0.001    7.9441425    16.943116    657.01869   -2669288.4   -2668631.4    668.28477  0.023879788   -6.0045766 
7.9541424617285185761,-2668631.3513059909455,667.98616889321078816,16.951028898437474624,0.031752231019137065748,-6.0548135757817824754
    7860        0.001    7.9541425    16.951029    657.32554   -2669288.7   -2668631.4    667.98617  0.031752231   -6.0548136 
7.9641424617285183629,-2668631.3510619979352,667.6591213745297182,16.947147830278389335,0.026376603857914057705,-6.1035755726365179541
    7870        0.001    7.9641425    16.947148    657.17505   -2669288.5   -2668631.4    667.65912  0.026376604   -6.1035756 
7.9741424617285181498,-2668631.3508099601604,667.00341600681679211,16.940918879028895816,0.028612382378359710322,-6.0886874260257117797
    7880        0.001    7.9741425    16.940919     656.9335   -2669288.3   -2668631.4    667.00342  0.028612382   -6.0886874 
7.9841424617285179366,-2668631.350725049153,666.00328100757792527,16.942017590029795571,0.02425058920995820308,-6.0905625972703170135
    7890        0.001    7.9841425    16.942018    656.97611   -2669288.3   -2668631.4    666.00328  0.024250589   -6.0905626 
7.9941424617285186116,-2668631.3508419184946,664.81378037109391244,16.953791208630480725,0.025910595941060099445,-6.1119553197353777563
    7900        0.001    7.9941425    16.953791    657.43266   -2669288.8   -2668631.4    664.81378  0.025910596   -6.1119553 
8.0041424617285183984,-2668631.3510479363613,663.82177473321166872,16.971831367549714997,0.034895625902742893887,-6.1107588991500394471
    7910        0.001    8.0041425    16.971831    658.13222   -2669289.5   -2668631.4    663.82177  0.034895626   -6.1107589 
8.0141424617285181853,-2668631.3511956622824,663.50087484878577015,16.988137781696259765,0.032619027361817987121,-6.1042130466218171847
    7920        0.001    8.0141425    16.988138    658.76455   -2669290.1   -2668631.4    663.50087  0.032619027    -6.104213 
8.0241424617285179721,-2668631.3511766418815,664.10251246144582637,16.99704753573201188,0.038672630893312014144,-6.096524555145115265
    7930        0.001    8.0241425    16.997048    659.11005   -2669290.5   -2668631.4    664.10251  0.038672631   -6.0965246 
8.034142461728517759,-2668631.350996544119,665.47820775792945369,16.999383199273719214,0.037734683849744897477,-6.0899507358943560931
    7940        0.001    8.0341425    16.999383    659.20062   -2669290.6   -2668631.4    665.47821  0.037734684   -6.0899507 
8.0441424617285175458,-2668631.3507792274468,667.07216178220028269,17.002230840716173077,0.025297253325169320737,-6.0879622471611165579
    7950        0.001    8.0441425    17.002231    659.31105   -2669290.7   -2668631.4    667.07216  0.025297253   -6.0879622 
8.054142461728519109,-2668631.3507087607868,668.22912781169179652,17.013942036495294019,0.02637324324510927076,-6.0939076413516115593
    7960        0.001    8.0541425    17.013942    659.76519   -2669291.1   -2668631.4    668.22913  0.026373243   -6.0939076 
8.0641424617285188958,-2668631.3508667545393,668.63567534934350078,17.037190562018245998,0.033110499992207005626,-6.1035487499032852199
    7970        0.001    8.0641425    17.037191    660.66671     -2669292   -2668631.4    668.63568    0.0331105   -6.1035487 
8.0741424617285186827,-2668631.3511712909676,668.32376465409447519,17.065813646153255689,0.032360820909482626573,-6.0984281480631077343
    7980        0.001    8.0741425    17.065814    661.77666   -2669293.1   -2668631.4    668.32376  0.032360821   -6.0984281 
8.0841424617285184695,-2668631.3514563106,667.53415992726195327,17.08787642995613254,0.03031610776220232048,-6.1019246095256347573
    7990        0.001    8.0841425    17.087876    662.63221     -2669294   -2668631.4    667.53416  0.030316108   -6.1019246 
8.0941424617285182563,-2668631.3515516007319,666.67229249626711862,17.092269700338693639,0.038847814676246164578,-6.1097636199432479032
    8000        0.001    8.0941425     17.09227    662.80257   -2669294.2   -2668631.4    666.67229  0.038847815   -6.1097636 
Loop time of 29.387 on 8 procs for 500 steps with 300000 atoms

Performance: 1.470 ns/day, 16.326 hours/ns, 17.014 timesteps/s
99.2% CPU use with 8 MPI tasks x 1 OpenMP threads

MPI task timing breakdown:
Section |  min time  |  avg time  |  max time  |%varavg| %total
---------------------------------------------------------------
Pair    | 27.313     | 27.693     | 28.062     |   4.0 | 94.24
Neigh   | 0.031244   | 0.031986   | 0.033203   |   0.4 |  0.11
Comm    | 0.3215     | 0.69004    | 1.0823     |  25.6 |  2.35
Output  | 0.13041    | 0.13219    | 0.13246    |   0.2 |  0.45
Modify  | 0.5993     | 0.6056     | 0.6111     |   0.6 |  2.06
Other   |            | 0.2337     |            |       |  0.80

Nlocal:    37500 ave 37674 max 37211 min
Histogram: 1 0 0 0 1 1 1 1 2 1
Nghost:    22592.2 ave 22882 max 22419 min
Histogram: 1 2 1 1 1 1 0 0 0 1
Neighs:    1.20001e+06 ave 1.21543e+06 max 1.17851e+06 min
Histogram: 1 0 1 0 2 0 1 0 1 2

Total # of neighbors = 9600090
Ave neighs/atom = 32.0003
Neighbor list builds = 1
Dangerous builds = 0
System init for write_data ...
