#  #

8  atoms
1  atom types

0.00000000 22.01605120  xlo xhi
0.00000000 27.52006400  ylo yhi
0.00000000 27.52006400  zlo zhi

Atoms

1   1  -0.00500000 0.00000000 0.00000000
2   1  2.75200640 0.00000000 0.00000000
3   1  5.50401280 0.00000000 0.00000000
4   1  8.25601920 0.00000000 0.00000000
5   1  11.00802560 0.00000000 0.00000000
6   1  13.76003200 0.00000000 0.00000000
7   1  16.51203840 0.00000000 0.00000000
8   1  19.26404480 0.00000000 0.00000000
