ITEM: TIMESTEP
0
ITEM: NUMBER OF ATOMS
8
ITEM: BOX BOUNDS pp pp pp
0.0000000000000000e+00 2.2015999999999998e+01
0.0000000000000000e+00 2.7520000000000000e+01
0.0000000000000000e+00 2.7520000000000000e+01
ITEM: ATOMS id type mass x y z fx fy fz 
1 1                 58.7                0.005                    0                    0  -0.0187287167536863                    0                    0 
2 1                 58.7                2.752                    0                    0  0.00963675395633291                    0                    0 
3 1                 58.7                5.504                    0                    0 -0.000170388964930826                    0                    0 
4 1                 58.7                8.256                    0                    0 -3.56990386584917e-06                    0                    0 
5 1                 58.7               11.008                    0                    0 3.38216867706853e-15                    0                    0 
6 1                 58.7                13.76                    0                    0 -3.54467023852155e-06                    0                    0 
7 1                 58.7               16.512                    0                    0 -0.000169235988786235                    0                    0 
8 1                 58.7               19.264                    0                    0   0.0094387023251714                    0                    0 
