
  ___ ___ ___ _ _ _  
 |   |   |_  | | | | 
 | | | | | . | | | | 
 |__ |  _|___|_____|  19.8.1
 |___|_|             

User:   ericlin@hebbe09-7
Date:   Fri Mar  6 04:25:01 2020
Arch:   x86_64
Pid:    13433
Python: 3.7.2
gpaw:   /apps/Hebbe7/software/MPI/intel/2019.1.144-GCC-8.2.0-2.31.1/impi/2018.4.274/GPAW/19.8.1-Python-3.7.2/lib/python3.7/site-packages/gpaw
_gpaw:  /apps/Hebbe7/software/MPI/intel/2019.1.144-GCC-8.2.0-2.31.1/impi/2018.4.274/GPAW/19.8.1-Python-3.7.2/bin/
        gpaw-python
ase:    /apps/Hebbe7/software/MPI/intel/2019.1.144-GCC-8.2.0-2.31.1/impi/2018.4.274/ASE/3.18.0-Python-3.7.2/lib/python3.7/site-packages/ase (version 3.18.0)
numpy:  /apps/Hebbe7/software/MPI/intel/2019.1.144-GCC-8.2.0-2.31.1/impi/2018.4.274/SciPy-bundle/2019.03/lib/python3.7/site-packages/numpy (version 1.16.2)
scipy:  /apps/Hebbe7/software/MPI/intel/2019.1.144-GCC-8.2.0-2.31.1/impi/2018.4.274/SciPy-bundle/2019.03/lib/python3.7/site-packages/scipy (version 1.2.1)
libxc:  4.3.4
units:  Angstrom and eV
cores:  1

Input parameters:
  mode: {ecut: 200.0,
         gammacentered: False,
         name: pw}

System changes: positions, numbers, cell, pbc, initial_charges, initial_magmoms 

Initialize ...

Al-setup:
  name: Aluminium
  id: 2e6447feaea722efcff26bf034b25f30
  Z: 13
  valence: 3
  core: 10
  charge: 0.0
  file: /apps/Common/Core/GPAW-setups/0.9.20000/Al.LDA.gz
  compensation charges: gauss, rc=0.34, lmax=2
  cutoffs: 1.91(filt), 2.36(core),
  valence states:
                energy  radius
    3s(2.00)    -7.830   1.085
    3p(1.00)    -2.783   1.085
    *s          19.382   1.085
    *p          24.428   1.085
    *d           0.000   1.085

  Using partial waves for Al as LCAO basis

Reference energy: -85519.476996

Spin-paired calculation

Occupation numbers:
  Fermi-Dirac: width=0.1000 eV

Convergence criteria:
  Maximum total energy change: 0.0005 eV / electron
  Maximum integral of absolute density change: 0.0001 electrons
  Maximum integral of absolute eigenstate change: 4e-08 eV^2
  Maximum number of iterations: 333

Symmetries present (total): 48

  ( 1  0  0)  ( 1  0  0)  ( 1  0  0)  ( 1  0  0)  ( 1  0  0)  ( 1  0  0)
  ( 0  1  0)  ( 0  1  0)  ( 0  0  1)  ( 0  0  1)  ( 0  0 -1)  ( 0  0 -1)
  ( 0  0  1)  ( 0  0 -1)  ( 0  1  0)  ( 0 -1  0)  ( 0  1  0)  ( 0 -1  0)

  ( 1  0  0)  ( 1  0  0)  ( 0  1  0)  ( 0  1  0)  ( 0  1  0)  ( 0  1  0)
  ( 0 -1  0)  ( 0 -1  0)  ( 1  0  0)  ( 1  0  0)  ( 0  0  1)  ( 0  0  1)
  ( 0  0  1)  ( 0  0 -1)  ( 0  0  1)  ( 0  0 -1)  ( 1  0  0)  (-1  0  0)

  ( 0  1  0)  ( 0  1  0)  ( 0  1  0)  ( 0  1  0)  ( 0  0  1)  ( 0  0  1)
  ( 0  0 -1)  ( 0  0 -1)  (-1  0  0)  (-1  0  0)  ( 1  0  0)  ( 1  0  0)
  ( 1  0  0)  (-1  0  0)  ( 0  0  1)  ( 0  0 -1)  ( 0  1  0)  ( 0 -1  0)

  ( 0  0  1)  ( 0  0  1)  ( 0  0  1)  ( 0  0  1)  ( 0  0  1)  ( 0  0  1)
  ( 0  1  0)  ( 0  1  0)  ( 0 -1  0)  ( 0 -1  0)  (-1  0  0)  (-1  0  0)
  ( 1  0  0)  (-1  0  0)  ( 1  0  0)  (-1  0  0)  ( 0  1  0)  ( 0 -1  0)

  ( 0  0 -1)  ( 0  0 -1)  ( 0  0 -1)  ( 0  0 -1)  ( 0  0 -1)  ( 0  0 -1)
  ( 1  0  0)  ( 1  0  0)  ( 0  1  0)  ( 0  1  0)  ( 0 -1  0)  ( 0 -1  0)
  ( 0  1  0)  ( 0 -1  0)  ( 1  0  0)  (-1  0  0)  ( 1  0  0)  (-1  0  0)

  ( 0  0 -1)  ( 0  0 -1)  ( 0 -1  0)  ( 0 -1  0)  ( 0 -1  0)  ( 0 -1  0)
  (-1  0  0)  (-1  0  0)  ( 1  0  0)  ( 1  0  0)  ( 0  0  1)  ( 0  0  1)
  ( 0  1  0)  ( 0 -1  0)  ( 0  0  1)  ( 0  0 -1)  ( 1  0  0)  (-1  0  0)

  ( 0 -1  0)  ( 0 -1  0)  ( 0 -1  0)  ( 0 -1  0)  (-1  0  0)  (-1  0  0)
  ( 0  0 -1)  ( 0  0 -1)  (-1  0  0)  (-1  0  0)  ( 0  1  0)  ( 0  1  0)
  ( 1  0  0)  (-1  0  0)  ( 0  0  1)  ( 0  0 -1)  ( 0  0  1)  ( 0  0 -1)

  (-1  0  0)  (-1  0  0)  (-1  0  0)  (-1  0  0)  (-1  0  0)  (-1  0  0)
  ( 0  0  1)  ( 0  0  1)  ( 0  0 -1)  ( 0  0 -1)  ( 0 -1  0)  ( 0 -1  0)
  ( 0  1  0)  ( 0 -1  0)  ( 0  1  0)  ( 0 -1  0)  ( 0  0  1)  ( 0  0 -1)

1 k-point (Gamma)
1 k-point in the irreducible part of the Brillouin zone
       k-points in crystal coordinates                weights
   0:     0.00000000    0.00000000    0.00000000          1/1

Wave functions: Plane wave expansion
  Cutoff energy: 200.000 eV
  Number of coefficients: 25677 (reduced to 12839)
  Pulay-stress correction: 0.000000 eV/Ang^3 (de/decut=0.000000)
  Using FFTW library
  ScaLapack parameters: grid=1x1, blocksize=None
  Wavefunction extrapolation:
    Improved wavefunction reuse through dual PAW basis 

Eigensolver
   Davidson(niter=2, smin=None, normalize=True) 

Densities:
  Coarse grid: 54*54*54 grid
  Fine grid: 108*108*108 grid
  Total Charge: 0.000000 

Density mixing:
  Method: separate
  Backend: pulay
  Linear mixing parameter: 0.05
  Mixing with 5 old densities
  Damping of long wave oscillations: 50 

Hamiltonian:
  XC and Coulomb potentials evaluated on a 108*108*108 grid
  Using the LDA Exchange-Correlation functional
 

Memory estimate:
  Process memory now: 153.51 MiB
  Calculator: 108.03 MiB
    Density: 70.36 MiB
      Arrays: 31.24 MiB
      Localized functions: 27.11 MiB
      Mixer: 12.01 MiB
    Hamiltonian: 20.98 MiB
      Arrays: 20.42 MiB
      XC: 0.00 MiB
      Poisson: 0.00 MiB
      vbar: 0.55 MiB
    Wavefunctions: 16.68 MiB
      Arrays psit_nG: 5.49 MiB
      Eigensolver: 6.53 MiB
      Projections: 0.04 MiB
      Projectors: 1.37 MiB
      PW-descriptor: 3.27 MiB

Total number of cores used: 1

Number of atoms: 13
Number of atomic orbitals: 52
Number of bands in calculation: 28
Bands to converge: occupied states only
Number of valence electrons: 39

... initialized

Initializing position-dependent things.

Density initialized from atomic densities
Creating initial wave functions:
  28 bands from LCAO basis set

           .--------------------------------------.  
          /|                                      |  
         / |                                      |  
        /  |                                      |  
       /   |                                      |  
      /    |                                      |  
     /     |                                      |  
    /      |                                      |  
   /       |                                      |  
  /        |                                      |  
 *         |                                      |  
 |         |               Al                     |  
 |         |         Al       Al                  |  
 |         |          AlAl     Al                 |  
 |         |                                      |  
 |         |             Al                       |  
 |         |        Al     AlAl                   |  
 |         |         Al       Al                  |  
 |         |            Al                        |  
 |         .--------------------------------------.  
 |        /                                      /   
 |       /                                      /    
 |      /                                      /     
 |     /                                      /      
 |    /                                      /       
 |   /                                      /        
 |  /                                      /         
 | /                                      /          
 |/                                      /           
 *--------------------------------------*            

Positions:
   0 Al     7.930480    6.000000    6.000000    ( 0.0000,  0.0000,  0.0000)
   1 Al     6.000000    7.930480    6.000000    ( 0.0000,  0.0000,  0.0000)
   2 Al     9.860960    7.930480    6.000000    ( 0.0000,  0.0000,  0.0000)
   3 Al     7.930480    9.860960    6.000000    ( 0.0000,  0.0000,  0.0000)
   4 Al     6.000000    6.000000    7.930480    ( 0.0000,  0.0000,  0.0000)
   5 Al     9.860960    6.000000    7.930480    ( 0.0000,  0.0000,  0.0000)
   6 Al     7.930480    6.000000    9.860960    ( 0.0000,  0.0000,  0.0000)
   7 Al     6.000000    9.860960    7.930480    ( 0.0000,  0.0000,  0.0000)
   8 Al     6.000000    7.930480    9.860960    ( 0.0000,  0.0000,  0.0000)
   9 Al     7.930480    7.930480    7.930480    ( 0.0000,  0.0000,  0.0000)
  10 Al     9.860960    9.860960    7.930480    ( 0.0000,  0.0000,  0.0000)
  11 Al     9.860960    7.930480    9.860960    ( 0.0000,  0.0000,  0.0000)
  12 Al     7.930480    9.860960    9.860960    ( 0.0000,  0.0000,  0.0000)

Unit cell:
           periodic     x           y           z      points  spacing
  1. axis:    yes   15.860960    0.000000    0.000000    54     0.2937
  2. axis:    yes    0.000000   15.860960    0.000000    54     0.2937
  3. axis:    yes    0.000000    0.000000   15.860960    54     0.2937

  Lengths:  15.860960  15.860960  15.860960
  Angles:   90.000000  90.000000  90.000000

Effective grid spacing dv^(1/3) = 0.2937

                     log10-error:    total        iterations:
           time      wfs    density  energy       fermi  poisson
iter:   1  04:25:04  +0.27   +inf   -42.420524    5             
iter:   2  04:25:06  -0.89  -0.76   -42.019105    5             
iter:   3  04:25:09  -1.14  -0.78   -40.214443    34            
iter:   4  04:25:11  -2.03  -1.14   -40.254892    6             
iter:   5  04:25:13  -1.17  -1.11   -41.974959    32            
iter:   6  04:25:15  -1.08  -0.93   -40.276027    34            
iter:   7  04:25:17  -2.33  -1.45   -40.222940    5             
iter:   8  04:25:19  -2.56  -1.48   -40.220908    4             
iter:   9  04:25:22  -2.85  -1.59   -40.167445    5             
iter:  10  04:25:24  -3.06  -1.83   -40.150768    3             
iter:  11  04:25:26  -2.78  -2.02   -40.154857    5             
iter:  12  04:25:28  -3.37  -2.02   -40.144873    4             
iter:  13  04:25:30  -3.77  -2.93   -40.145023    3             
iter:  14  04:25:32  -4.04  -3.16   -40.145056    2             
iter:  15  04:25:35  -4.23  -3.30   -40.145124    3             
iter:  16  04:25:37  -4.42  -3.22   -40.145226    3             
iter:  17  04:25:39  -4.61  -3.02   -40.145343    3             
iter:  18  04:25:41  -4.82  -2.90   -40.145327    3             
iter:  19  04:25:43  -4.82  -2.94   -40.145126    3             
iter:  20  04:25:46  -5.21  -3.51   -40.145131    2             
iter:  21  04:25:48  -5.41  -3.54   -40.145137    2             
iter:  22  04:25:50  -5.59  -3.68   -40.145131    3             
iter:  23  04:25:52  -5.66  -3.64   -40.145153    3             
iter:  24  04:25:54  -6.00  -3.51   -40.145142    2             
iter:  25  04:25:57  -5.99  -3.55   -40.145129    3             
iter:  26  04:25:59  -6.39  -4.51   -40.145130    2             
iter:  27  04:26:01  -6.60  -4.53   -40.145130    2             
iter:  28  04:26:03  -6.80  -4.49   -40.145130    2             
iter:  29  04:26:05  -6.97  -4.50   -40.145130    2             
iter:  30  04:26:07  -7.17  -4.62   -40.145130    2             
iter:  31  04:26:10  -7.36  -4.59   -40.145130    2             
iter:  32  04:26:12  -7.54  -4.61   -40.145130    2             

Converged after 32 iterations.

Dipole moment: (0.000000, -0.000000, -0.000000) |e|*Ang

Energy contributions relative to reference atoms: (reference = -85519.476996)

Kinetic:        +45.921120
Potential:      -34.248441
External:        +0.000000
XC:             -51.503740
Entropy (-ST):   -0.271890
Local:           -0.178124
--------------------------
Free energy:    -40.281075
Extrapolated:   -40.145130

Fermi level: -3.96645

 Band  Eigenvalues  Occupancy
    0    -12.92897    2.00000
    1    -10.62859    2.00000
    2    -10.62859    2.00000
    3    -10.62859    2.00000
    4     -8.28834    2.00000
    5     -8.28834    2.00000
    6     -8.28834    2.00000
    7     -7.12649    2.00000
    8     -7.12649    2.00000
    9     -6.97656    2.00000
   10     -5.58190    2.00000
   11     -5.26088    2.00000
   12     -5.26088    2.00000
   13     -5.26088    2.00000
   14     -4.77864    1.99941
   15     -4.77864    1.99941
   16     -4.77864    1.99941
   17     -4.12759    1.66722
   18     -4.12759    1.66722
   19     -4.12759    1.66722
   20     -2.90359    0.00005
   21     -2.90359    0.00005
   22     -2.90359    0.00005
   23     -2.55216    0.00000
   24     -2.55216    0.00000
   25     -1.91246    0.00000
   26     -1.91246    0.00000
   27     -1.91246    0.00000

Gap: 1.224 eV
Transition (v -> c):
  (s=0, k=0, n=19, [0.00, 0.00, 0.00]) -> (s=0, k=0, n=20, [0.00, 0.00, 0.00])
