6
Lattice="16.0 0.0 0.0 0.0 16.0 0.0 0.0 0.0 16.0" Properties=species:S:1:pos:R:3:forces:R:3 energy=-4.9339152018579595 dipole="0.0015626714980142432 0.0065569024942564065 0.007736388458092158" pbc="F F F"
Na       6.95014547       6.72574915       8.10590267       0.00303485      -0.00099714      -0.00958130
Na       7.07140960       5.66219830       4.98608147      -0.00046526       0.00218915       0.00091945
Na       8.49500199       8.59282102       5.51079412      -0.00320822      -0.00454992       0.00374551
Na       8.44277478       9.84252222       8.81765611       0.00458608       0.00465910      -0.00493119
Na       9.83631286      11.49289008       6.32030514      -0.00147717      -0.00119199       0.00150928
Na       6.99376642       8.00829794      11.13465669      -0.00132080      -0.00015753       0.00627841
