7
Lattice="16.0 0.0 0.0 0.0 16.0 0.0 0.0 0.0 16.0" Properties=species:S:1:pos:R:3:forces:R:3 energy=-5.873424622085571 dipole="-0.0007463843084344231 0.0004383365194030555 -0.001637532468917049" pbc="F F F"
Na       5.18014312       7.04495023       7.34430789       0.00641004       0.00055935      -0.00456136
Na       8.53744854       6.16945990       7.46211464       0.00206992       0.00577355      -0.00073877
Na       9.76346080       7.78902594      10.26569146      -0.00292246       0.00161120      -0.00377854
Na       6.65197043       6.46302926      10.32802776      -0.00236500       0.00008500       0.00748344
Na       7.41459745       8.68457714       5.39017678       0.00120640       0.00515090       0.00824998
Na      10.22325557       9.20182188       7.22234943      -0.00352453      -0.00597854      -0.00301978
Na       7.15345613       9.50786284       8.76138776       0.00046010      -0.00511765      -0.00456072
