
  ___ ___ ___ _ _ _  
 |   |   |_  | | | | 
 | | | | | . | | | | 
 |__ |  _|___|_____|  19.8.1
 |___|_|             

User:   ericlin@hebbe12-5
Date:   Thu Feb 13 09:34:20 2020
Arch:   x86_64
Pid:    21686
Python: 3.7.2
gpaw:   /apps/Hebbe7/software/MPI/GCC/8.2.0-2.31.1/OpenMPI/3.1.3/GPAW/19.8.1-Python-3.7.2-libvdwxc/lib/python3.7/site-packages/gpaw
_gpaw:  /apps/Hebbe7/software/MPI/GCC/8.2.0-2.31.1/OpenMPI/3.1.3/GPAW/19.8.1-Python-3.7.2-libvdwxc/bin/
        gpaw-python
ase:    /apps/Hebbe7/software/MPI/GCC/8.2.0-2.31.1/OpenMPI/3.1.3/ASE/3.18.0-Python-3.7.2/lib/python3.7/site-packages/ase (version 3.18.0)
numpy:  /apps/Hebbe7/software/MPI/GCC/8.2.0-2.31.1/OpenMPI/3.1.3/SciPy-bundle/2019.03/lib/python3.7/site-packages/numpy (version 1.16.2)
scipy:  /apps/Hebbe7/software/MPI/GCC/8.2.0-2.31.1/OpenMPI/3.1.3/SciPy-bundle/2019.03/lib/python3.7/site-packages/scipy (version 1.2.1)
libxc:  4.3.4
units:  Angstrom and eV
cores:  1

Input parameters:
  h: 0.25
  mode: {ecut: 350.0,
         gammacentered: False,
         name: pw}
  nbands: 10
  occupations: {name: fermi-dirac,
                width: 0.05}
  setups: {Na: 1}
  xc: PBE

System changes: positions, numbers, cell, pbc, initial_charges, initial_magmoms 

Initialize ...

Na-setup:
  name: Sodium
  id: 8dbce52902f3add137ce7d12431c9cac
  Z: 11
  valence: 1
  core: 10
  charge: 0.0
  file: /apps/Common/Core/GPAW-setups/0.9.20000/Na.1.PBE.gz
  compensation charges: gauss, rc=0.43, lmax=2
  cutoffs: 2.36(filt), 3.60(core),
  valence states:
                energy  radius
    3s(1.00)    -2.744   1.349
    3p(0.00)    -0.743   1.349
    *s          24.468   1.349

  Using partial waves for Na as LCAO basis

Reference energy: -26511.662975

Spin-paired calculation

Occupation numbers:
  Fermi-Dirac: width=0.0500 eV

Convergence criteria:
  Maximum total energy change: 0.0005 eV / electron
  Maximum integral of absolute density change: 0.0001 electrons
  Maximum integral of absolute eigenstate change: 4e-08 eV^2
  Maximum number of iterations: 333

Symmetries present (total): 1

  ( 1  0  0)
  ( 0  1  0)
  ( 0  0  1)

1 k-point (Gamma)
1 k-point in the irreducible part of the Brillouin zone
       k-points in crystal coordinates                weights
   0:     0.00000000    0.00000000    0.00000000          1/1

Wave functions: Plane wave expansion
  Cutoff energy: 350.000 eV
  Number of coefficients: 61037 (reduced to 30519)
  Pulay-stress correction: 0.000000 eV/Ang^3 (de/decut=0.000000)
  Using FFTW library
  ScaLapack parameters: grid=1x1, blocksize=None
  Wavefunction extrapolation:
    Improved wavefunction reuse through dual PAW basis 

Eigensolver
   Davidson(niter=2, smin=None, normalize=True) 

Densities:
  Coarse grid: 64*64*64 grid
  Fine grid: 128*128*128 grid
  Total Charge: 0.000000 

Density mixing:
  Method: separate
  Backend: pulay
  Linear mixing parameter: 0.05
  Mixing with 5 old densities
  Damping of long wave oscillations: 50 

Hamiltonian:
  XC and Coulomb potentials evaluated on a 128*128*128 grid
  Using the PBE Exchange-Correlation functional
 

XC parameters: PBE with 2 nearest neighbor stencil

Memory estimate:
  Process memory now: 214.27 MiB
  Calculator: 177.19 MiB
    Density: 123.30 MiB
      Arrays: 52.00 MiB
      Localized functions: 51.30 MiB
      Mixer: 20.00 MiB
    Hamiltonian: 35.05 MiB
      Arrays: 34.00 MiB
      XC: 0.00 MiB
      Poisson: 0.00 MiB
      vbar: 1.05 MiB
    Wavefunctions: 18.84 MiB
      Arrays psit_nG: 4.66 MiB
      Eigensolver: 6.99 MiB
      Projections: 0.00 MiB
      Projectors: 1.63 MiB
      PW-descriptor: 5.56 MiB

Total number of cores used: 1

Number of atoms: 6
Number of atomic orbitals: 24
Number of bands in calculation: 10
Bands to converge: occupied states only
Number of valence electrons: 6

... initialized

Initializing position-dependent things.

Density initialized from atomic densities
Creating initial wave functions:
  10 bands from LCAO basis set

           .--------------------------------------.  
          /|                                      |  
         / |                                      |  
        /  |                                      |  
       /   |                                      |  
      /    |                                      |  
     /     |                                      |  
    /      |                                      |  
   /       |                                      |  
  /        |                                      |  
 *         |           Na                         |  
 |         |                                      |  
 |         |                Na                    |  
 |         |                                      |  
 |         |            Na                        |  
 |         |                    Na                |  
 |         |                                      |  
 |         |                Na                    |  
 |         |                                      |  
 |         |             Na                       |  
 |         .--------------------------------------.  
 |        /                                      /   
 |       /                                      /    
 |      /                                      /     
 |     /                                      /      
 |    /                                      /       
 |   /                                      /        
 |  /                                      /         
 | /                                      /          
 |/                                      /           
 *--------------------------------------*            

Positions:
   0 Na    11.424955    5.046215    9.661160    ( 0.0000,  0.0000,  0.0000)
   1 Na     9.091214    7.135542   10.719357    ( 0.0000,  0.0000,  0.0000)
   2 Na     6.710298    9.263471   11.516303    ( 0.0000,  0.0000,  0.0000)
   3 Na     7.680133    8.011559    5.125248    ( 0.0000,  0.0000,  0.0000)
   4 Na     9.624253    6.463545    7.292195    ( 0.0000,  0.0000,  0.0000)
   5 Na     7.055205    8.690646    8.283979    ( 0.0000,  0.0000,  0.0000)

Unit cell:
           periodic     x           y           z      points  spacing
  1. axis:    no    16.000000    0.000000    0.000000    64     0.2500
  2. axis:    no     0.000000   16.000000    0.000000    64     0.2500
  3. axis:    no     0.000000    0.000000   16.000000    64     0.2500

  Lengths:  16.000000  16.000000  16.000000
  Angles:   90.000000  90.000000  90.000000

Effective grid spacing dv^(1/3) = 0.2500

                     log10-error:    total        iterations:
           time      wfs    density  energy       fermi  poisson
iter:   1  09:34:29  +0.21   +inf    -4.910890    2             
iter:   2  09:34:31  -1.08  -0.51    -4.921883    2             
iter:   3  09:34:34  -1.70  -0.53    -4.825772    5             
iter:   4  09:34:37  -2.27  -0.77    -4.828651    3             
iter:   5  09:34:39  -2.61  -0.88    -4.831440    3             
iter:   6  09:34:42  -3.10  -1.40    -4.832771    3             
iter:   7  09:34:45  -3.67  -1.58    -4.832582    2             
iter:   8  09:34:47  -3.87  -1.62    -4.831384    3             
iter:   9  09:34:50  -4.61  -2.31    -4.831316    2             
iter:  10  09:34:53  -5.07  -2.40    -4.831332    1             
iter:  11  09:34:55  -5.50  -2.63    -4.831329    1             
iter:  12  09:34:58  -6.00  -2.64    -4.831333    1             
iter:  13  09:35:01  -6.35  -2.68    -4.831333    1             
iter:  14  09:35:03  -6.73  -2.79    -4.831332    1             
iter:  15  09:35:06  -6.73  -2.87    -4.831332    2             
iter:  16  09:35:09  -7.52  -3.00    -4.831332    1             
iter:  17  09:35:11  -7.25  -3.03    -4.831333    1             
iter:  18  09:35:14  -7.83  -3.27    -4.831334    1             
iter:  19  09:35:17  -7.46  -3.34    -4.831334    1             
iter:  20  09:35:19  -8.34  -3.52    -4.831334    1             
iter:  21  09:35:22  -8.76  -3.58    -4.831334    1             
iter:  22  09:35:25  -8.96  -3.63    -4.831334    1             
iter:  23  09:35:28  -8.29  -3.68    -4.831334    1             
iter:  24  09:35:30  -9.27  -3.95    -4.831334    1             
iter:  25  09:35:33  -8.97  -4.00    -4.831334    1             
iter:  26  09:35:36 -10.13  -4.14    -4.831334    1             

Converged after 26 iterations.

Dipole moment: (0.018487, -0.008614, -0.012077) |e|*Ang

Energy contributions relative to reference atoms: (reference = -26511.662975)

Kinetic:        +11.683375
Potential:      -10.662050
External:        +0.000000
XC:              -5.854457
Entropy (-ST):   -0.000017
Local:           +0.001806
--------------------------
Free energy:     -4.831343
Extrapolated:    -4.831334

Fermi level: -2.26748

 Band  Eigenvalues  Occupancy
    0     -3.89859    2.00000
    1     -2.90218    1.99999
    2     -2.89962    1.99999
    3     -1.66265    0.00001
    4     -1.53522    0.00000
    5     -1.51265    0.00000
    6     -1.33003    0.00000
    7     -0.60530    0.00000
    8     -0.57048    0.00000
    9     -0.51724    0.00000

Gap: 1.237 eV
Transition (v -> c):
  (s=0, k=0, n=2, [0.00, 0.00, 0.00]) -> (s=0, k=0, n=3, [0.00, 0.00, 0.00])
System changes: positions 

Initializing position-dependent things.

Density initialized from wave functions
           .--------------------------------------.  
          /|                                      |  
         / |                                      |  
        /  |                                      |  
       /   |                                      |  
      /    |                                      |  
     /     |                                      |  
    /      |                                      |  
   /       |                                      |  
  /        |                                      |  
 *         |                                      |  
 |         |          Na                          |  
 |         |                                      |  
 |         |       Na      Na                     |  
 |         |                Na                    |  
 |         |                                      |  
 |         |                                      |  
 |         |             Na   Na                  |  
 |         |                                      |  
 |         |                                      |  
 |         .--------------------------------------.  
 |        /                                      /   
 |       /                                      /    
 |      /                                      /     
 |     /                                      /      
 |    /                                      /       
 |   /                                      /        
 |  /                                      /         
 | /                                      /          
 |/                                      /           
 *--------------------------------------*            

Positions:
   0 Na     8.210231    9.489933    8.656516    ( 0.0000,  0.0000,  0.0000)
   1 Na     6.417931    8.101846   10.968460    ( 0.0000,  0.0000,  0.0000)
   2 Na     5.009862    9.947279    8.321395    ( 0.0000,  0.0000,  0.0000)
   3 Na     7.211492    9.790525    5.577356    ( 0.0000,  0.0000,  0.0000)
   4 Na     9.992557    7.848605    6.505352    ( 0.0000,  0.0000,  0.0000)
   5 Na     9.477264    6.754058    9.822530    ( 0.0000,  0.0000,  0.0000)

Unit cell:
           periodic     x           y           z      points  spacing
  1. axis:    no    16.000000    0.000000    0.000000    64     0.2500
  2. axis:    no     0.000000   16.000000    0.000000    64     0.2500
  3. axis:    no     0.000000    0.000000   16.000000    64     0.2500

  Lengths:  16.000000  16.000000  16.000000
  Angles:   90.000000  90.000000  90.000000

Effective grid spacing dv^(1/3) = 0.2500

                     log10-error:    total        iterations:
           time      wfs    density  energy       fermi  poisson
iter:   1  09:35:39  +0.36   +inf    -7.050586    23            
iter:   2  09:35:42  -0.48  -0.09    -6.948892    3             
iter:   3  09:35:44  -1.22  -0.11    -5.977616    6             
iter:   4  09:35:47  -1.28  -0.22    -5.135173    20            
iter:   5  09:35:50  -2.34  -0.46    -4.957791    3             
iter:   6  09:35:52  -2.40  -0.55    -4.843444    4             
iter:   7  09:35:55  -2.45  -0.84    -4.881301    5             
iter:   8  09:35:58  -2.72  -0.96    -4.859703    4             
iter:   9  09:36:00  -3.47  -1.32    -4.860443    2             
iter:  10  09:36:03  -3.71  -1.43    -4.862829    3             
iter:  11  09:36:06  -4.04  -1.65    -4.862458    2             
iter:  12  09:36:08  -4.84  -1.91    -4.862433    2             
iter:  13  09:36:11  -4.94  -1.94    -4.862474    2             
iter:  14  09:36:14  -5.16  -2.10    -4.862554    2             
iter:  15  09:36:16  -5.67  -2.16    -4.862610    2             
iter:  16  09:36:19  -5.97  -2.31    -4.862623    2             
iter:  17  09:36:22  -5.68  -2.38    -4.862648    2             
iter:  18  09:36:24  -6.61  -2.60    -4.862649    1             
iter:  19  09:36:27  -7.01  -2.64    -4.862652    1             
iter:  20  09:36:30  -6.13  -2.70    -4.862676    1             
iter:  21  09:36:32  -7.09  -2.91    -4.862673    1             
iter:  22  09:36:35  -7.17  -2.96    -4.862673    1             
iter:  23  09:36:38  -7.17  -3.06    -4.862672    1             
iter:  24  09:36:40  -7.72  -3.60    -4.862672    1             
iter:  25  09:36:43  -8.50  -3.77    -4.862672    1             
iter:  26  09:36:45  -8.97  -3.91    -4.862672    1             
iter:  27  09:36:48  -9.16  -4.00    -4.862672    1             
iter:  28  09:36:51  -9.73  -4.08    -4.862672    1             

Converged after 28 iterations.

Dipole moment: (-0.071580, -0.113112, -0.048919) |e|*Ang

Energy contributions relative to reference atoms: (reference = -26511.662975)

Kinetic:        +11.805843
Potential:      -10.598703
External:        +0.000000
XC:              -6.070057
Entropy (-ST):   -0.000037
Local:           +0.000264
--------------------------
Free energy:     -4.862690
Extrapolated:    -4.862672

Fermi level: -2.24072

 Band  Eigenvalues  Occupancy
    0     -4.00165    2.00000
    1     -2.83666    1.99999
    2     -2.82876    1.99998
    3     -1.67902    0.00003
    4     -1.53136    0.00000
    5     -1.52082    0.00000
    6     -1.25654    0.00000
    7     -0.67306    0.00000
    8     -0.65925    0.00000
    9     -0.29696    0.00000

Gap: 1.150 eV
Transition (v -> c):
  (s=0, k=0, n=2, [0.00, 0.00, 0.00]) -> (s=0, k=0, n=3, [0.00, 0.00, 0.00])
System changes: positions 

Initializing position-dependent things.

Density initialized from wave functions
           .--------------------------------------.  
          /|                                      |  
         / |                                      |  
        /  |                                      |  
       /   |                                      |  
      /    |                                      |  
     /     |                                      |  
    /      |                                      |  
   /       |                                      |  
  /        |                                      |  
 *         |           Na                         |  
 |         |                                      |  
 |         |                Na                    |  
 |         |                                      |  
 |         |            Na                        |  
 |         |                    Na                |  
 |         |                                      |  
 |         |                Na                    |  
 |         |                                      |  
 |         |             Na                       |  
 |         .--------------------------------------.  
 |        /                                      /   
 |       /                                      /    
 |      /                                      /     
 |     /                                      /      
 |    /                                      /       
 |   /                                      /        
 |  /                                      /         
 | /                                      /          
 |/                                      /           
 *--------------------------------------*            

Positions:
   0 Na    11.424955    5.046215    9.661160    ( 0.0000,  0.0000,  0.0000)
   1 Na     9.091214    7.135542   10.719357    ( 0.0000,  0.0000,  0.0000)
   2 Na     6.710298    9.263471   11.516303    ( 0.0000,  0.0000,  0.0000)
   3 Na     7.680133    8.011559    5.125248    ( 0.0000,  0.0000,  0.0000)
   4 Na     9.624253    6.463545    7.292195    ( 0.0000,  0.0000,  0.0000)
   5 Na     7.055205    8.690646    8.283979    ( 0.0000,  0.0000,  0.0000)

Unit cell:
           periodic     x           y           z      points  spacing
  1. axis:    no    16.000000    0.000000    0.000000    64     0.2500
  2. axis:    no     0.000000   16.000000    0.000000    64     0.2500
  3. axis:    no     0.000000    0.000000   16.000000    64     0.2500

  Lengths:  16.000000  16.000000  16.000000
  Angles:   90.000000  90.000000  90.000000

Effective grid spacing dv^(1/3) = 0.2500

                     log10-error:    total        iterations:
           time      wfs    density  energy       fermi  poisson
iter:   1  09:36:54  +0.55   +inf   -10.841145    29            
iter:   2  09:36:57  -0.30  +0.05   -10.204865    4             
iter:   3  09:36:59  -1.05  +0.04    -9.666009    4             
iter:   4  09:37:02  -0.92  +0.02    -5.127916    21            
iter:   5  09:37:05  -1.65  -0.38    -4.937256    5             
iter:   6  09:37:07  -2.20  -0.49    -4.848297    5             
iter:   7  09:37:10  -2.09  -0.62    -4.838914    7             
iter:   8  09:37:13  -2.82  -0.92    -4.827866    3             
iter:   9  09:37:15  -3.40  -1.17    -4.831419    2             
iter:  10  09:37:18  -3.86  -1.28    -4.831785    3             
iter:  11  09:37:21  -3.57  -1.35    -4.831140    2             
iter:  12  09:37:23  -4.63  -1.77    -4.831079    2             
iter:  13  09:37:26  -4.75  -1.79    -4.831067    2             
iter:  14  09:37:29  -4.91  -2.06    -4.831313    2             
iter:  15  09:37:31  -5.99  -2.34    -4.831310    1             
iter:  16  09:37:34  -5.72  -2.36    -4.831335    2             
iter:  17  09:37:37  -5.97  -2.55    -4.831335    2             
iter:  18  09:37:39  -6.85  -2.79    -4.831336    1             
iter:  19  09:37:42  -6.94  -2.83    -4.831333    1             
iter:  20  09:37:45  -7.17  -3.01    -4.831334    1             
iter:  21  09:37:47  -7.57  -3.12    -4.831333    1             
iter:  22  09:37:50  -8.25  -3.19    -4.831333    1             
iter:  23  09:37:53  -7.53  -3.22    -4.831334    1             
iter:  24  09:37:55  -8.40  -3.52    -4.831334    1             
iter:  25  09:37:58  -7.87  -3.57    -4.831334    1             
iter:  26  09:38:01  -8.93  -3.93    -4.831334    1             
iter:  27  09:38:03  -8.77  -4.00    -4.831334    1             

Converged after 27 iterations.

Dipole moment: (0.018548, -0.008667, -0.012014) |e|*Ang

Energy contributions relative to reference atoms: (reference = -26511.662975)

Kinetic:        +11.685379
Potential:      -10.663600
External:        +0.000000
XC:              -5.853966
Entropy (-ST):   -0.000017
Local:           +0.000861
--------------------------
Free energy:     -4.831343
Extrapolated:    -4.831334

Fermi level: -2.26762

 Band  Eigenvalues  Occupancy
    0     -3.89873    2.00000
    1     -2.90233    1.99999
    2     -2.89976    1.99999
    3     -1.66279    0.00001
    4     -1.53535    0.00000
    5     -1.51277    0.00000
    6     -1.33014    0.00000
    7     -0.60206    0.00000
    8     -0.57060    0.00000
    9     -0.53860    0.00000

Gap: 1.237 eV
Transition (v -> c):
  (s=0, k=0, n=2, [0.00, 0.00, 0.00]) -> (s=0, k=0, n=3, [0.00, 0.00, 0.00])

Forces in eV/Ang:
  0 Na    0.07634   -0.06461    0.02767
  1 Na    0.01700   -0.01212    0.03930
  2 Na   -0.05633    0.05424    0.07575
  3 Na   -0.02594    0.01540   -0.10369
  4 Na    0.02014   -0.01973   -0.03178
  5 Na   -0.03137    0.02692   -0.00735

System changes: positions 

Initializing position-dependent things.

Density initialized from wave functions
           .--------------------------------------.  
          /|                                      |  
         / |                                      |  
        /  |                                      |  
       /   |                                      |  
      /    |                                      |  
     /     |                                      |  
    /      |                                      |  
   /       |                                      |  
  /        |                                      |  
 *         |           Na                         |  
 |         |                                      |  
 |         |                Na                    |  
 |         |                                      |  
 |         |            Na                        |  
 |         |                    Na                |  
 |         |                                      |  
 |         |                 Na                   |  
 |         |                                      |  
 |         |             Na                       |  
 |         .--------------------------------------.  
 |        /                                      /   
 |       /                                      /    
 |      /                                      /     
 |     /                                      /      
 |    /                                      /       
 |   /                                      /        
 |  /                                      /         
 | /                                      /          
 |/                                      /           
 *--------------------------------------*            

Positions:
   0 Na    11.577970    4.916708    9.716626    ( 0.0000,  0.0000,  0.0000)
   1 Na     9.125288    7.111244   10.798134    ( 0.0000,  0.0000,  0.0000)
   2 Na     6.597394    9.372189   11.668137    ( 0.0000,  0.0000,  0.0000)
   3 Na     7.628133    8.042421    4.917418    ( 0.0000,  0.0000,  0.0000)
   4 Na     9.664630    6.423990    7.228506    ( 0.0000,  0.0000,  0.0000)
   5 Na     6.992326    8.744606    8.269252    ( 0.0000,  0.0000,  0.0000)

Unit cell:
           periodic     x           y           z      points  spacing
  1. axis:    no    16.000000    0.000000    0.000000    64     0.2500
  2. axis:    no     0.000000   16.000000    0.000000    64     0.2500
  3. axis:    no     0.000000    0.000000   16.000000    64     0.2500

  Lengths:  16.000000  16.000000  16.000000
  Angles:   90.000000  90.000000  90.000000

Effective grid spacing dv^(1/3) = 0.2500

                     log10-error:    total        iterations:
           time      wfs    density  energy       fermi  poisson
iter:   1  09:38:08  -0.80   +inf    -5.029124    5             
iter:   2  09:38:10  -1.90  -0.66    -4.984540    3             
iter:   3  09:38:13  -1.94  -0.71    -4.852846    6             
iter:   4  09:38:16  -3.14  -1.18    -4.838971    3             
iter:   5  09:38:18  -3.79  -1.49    -4.838734    2             
iter:   6  09:38:21  -3.64  -1.54    -4.837464    3             
iter:   7  09:38:24  -4.40  -2.10    -4.837540    2             
iter:   8  09:38:26  -5.01  -2.15    -4.837539    2             
iter:   9  09:38:29  -5.18  -2.34    -4.837593    1             
iter:  10  09:38:32  -5.90  -2.44    -4.837580    2             
iter:  11  09:38:34  -5.44  -2.31    -4.837594    2             
iter:  12  09:38:37  -6.44  -3.05    -4.837593    1             
iter:  13  09:38:40  -6.90  -3.08    -4.837594    1             
iter:  14  09:38:42  -7.03  -3.16    -4.837595    1             
iter:  15  09:38:45  -7.70  -3.31    -4.837595    1             
iter:  16  09:38:47  -8.34  -3.37    -4.837594    1             
iter:  17  09:38:50  -7.89  -3.40    -4.837594    1             
iter:  18  09:38:53  -8.09  -3.52    -4.837594    1             
iter:  19  09:38:55  -8.16  -3.62    -4.837594    1             
iter:  20  09:38:58  -8.61  -3.73    -4.837594    1             
iter:  21  09:39:01  -8.35  -3.78    -4.837594    1             
iter:  22  09:39:03  -9.08  -4.03    -4.837594    1             

Converged after 22 iterations.

Dipole moment: (0.028781, -0.016774, -0.015908) |e|*Ang

Energy contributions relative to reference atoms: (reference = -26511.662975)

Kinetic:         +6.904603
Potential:       -6.865344
External:        +0.000000
XC:              -4.877138
Entropy (-ST):   -0.000036
Local:           +0.000304
--------------------------
Free energy:     -4.837612
Extrapolated:    -4.837594

Fermi level: -2.27727

 Band  Eigenvalues  Occupancy
    0     -3.78088    2.00000
    1     -2.87526    1.99999
    2     -2.86601    1.99998
    3     -1.71398    0.00003
    4     -1.57391    0.00000
    5     -1.55315    0.00000
    6     -1.26102    0.00000
    7     -0.63464    0.00000
    8     -0.60933    0.00000
    9     -0.53895    0.00000

Gap: 1.152 eV
Transition (v -> c):
  (s=0, k=0, n=2, [0.00, 0.00, 0.00]) -> (s=0, k=0, n=3, [0.00, 0.00, 0.00])

Forces in eV/Ang:
  0 Na   -0.04875    0.04111   -0.01841
  1 Na   -0.02141    0.01634   -0.03564
  2 Na    0.04036   -0.04032   -0.05641
  3 Na    0.01722   -0.01278    0.07486
  4 Na   -0.02336    0.02071    0.02724
  5 Na    0.03599   -0.02507    0.00849

System changes: positions 

Initializing position-dependent things.

Density initialized from wave functions
           .--------------------------------------.  
          /|                                      |  
         / |                                      |  
        /  |                                      |  
       /   |                                      |  
      /    |                                      |  
     /     |                                      |  
    /      |                                      |  
   /       |                                      |  
  /        |                                      |  
 *         |           Na                         |  
 |         |                                      |  
 |         |                Na                    |  
 |         |                                      |  
 |         |            Na                        |  
 |         |                    Na                |  
 |         |                                      |  
 |         |                Na                    |  
 |         |                                      |  
 |         |             Na                       |  
 |         .--------------------------------------.  
 |        /                                      /   
 |       /                                      /    
 |      /                                      /     
 |     /                                      /      
 |    /                                      /       
 |   /                                      /        
 |  /                                      /         
 | /                                      /          
 |/                                      /           
 *--------------------------------------*            

Positions:
   0 Na    11.538794    4.949270    9.699498    ( 0.0000,  0.0000,  0.0000)
   1 Na     9.075021    7.151317   10.736486    ( 0.0000,  0.0000,  0.0000)
   2 Na     6.643569    9.321982   11.597651    ( 0.0000,  0.0000,  0.0000)
   3 Na     7.644030    8.022906    5.004656    ( 0.0000,  0.0000,  0.0000)
   4 Na     9.612982    6.466036    7.272162    ( 0.0000,  0.0000,  0.0000)
   5 Na     7.071227    8.699770    8.287953    ( 0.0000,  0.0000,  0.0000)

Unit cell:
           periodic     x           y           z      points  spacing
  1. axis:    no    16.000000    0.000000    0.000000    64     0.2500
  2. axis:    no     0.000000   16.000000    0.000000    64     0.2500
  3. axis:    no     0.000000    0.000000   16.000000    64     0.2500

  Lengths:  16.000000  16.000000  16.000000
  Angles:   90.000000  90.000000  90.000000

Effective grid spacing dv^(1/3) = 0.2500

                     log10-error:    total        iterations:
           time      wfs    density  energy       fermi  poisson
iter:   1  09:39:08  -1.41   +inf    -4.900957    3             
iter:   2  09:39:11  -2.50  -0.95    -4.887651    2             
iter:   3  09:39:13  -2.49  -1.00    -4.849760    4             
iter:   4  09:39:16  -3.69  -1.54    -4.848537    2             
iter:   5  09:39:19  -4.31  -1.69    -4.848383    2             
iter:   6  09:39:21  -4.16  -1.78    -4.847896    2             
iter:   7  09:39:24  -4.91  -2.13    -4.847865    2             
iter:   8  09:39:27  -5.16  -2.31    -4.847897    2             
iter:   9  09:39:29  -5.74  -2.57    -4.847909    2             
iter:  10  09:39:32  -5.69  -2.63    -4.847910    1             
iter:  11  09:39:35  -6.64  -3.10    -4.847909    1             
iter:  12  09:39:37  -7.04  -3.12    -4.847909    1             
iter:  13  09:39:40  -7.30  -3.37    -4.847909    1             
iter:  14  09:39:43  -7.95  -3.58    -4.847909    1             
iter:  15  09:39:45  -8.15  -3.62    -4.847909    1             
iter:  16  09:39:48  -8.36  -3.72    -4.847909    1             
iter:  17  09:39:50  -9.32  -3.80    -4.847909    1             
iter:  18  09:39:53  -8.88  -3.87    -4.847909    1             
iter:  19  09:39:56  -9.28  -3.95    -4.847909    1             
iter:  20  09:39:58  -9.18  -4.02    -4.847909    1             

Converged after 20 iterations.

Dipole moment: (0.005961, 0.001157, -0.015543) |e|*Ang

Energy contributions relative to reference atoms: (reference = -26511.662975)

Kinetic:         +9.173128
Potential:       -8.656936
External:        +0.000000
XC:              -5.365087
Entropy (-ST):   -0.000033
Local:           +0.001002
--------------------------
Free energy:     -4.847925
Extrapolated:    -4.847909

Fermi level: -2.27819

 Band  Eigenvalues  Occupancy
    0     -3.84728    2.00000
    1     -2.89035    1.99999
    2     -2.86497    1.99998
    3     -1.71252    0.00002
    4     -1.54367    0.00000
    5     -1.50595    0.00000
    6     -1.29713    0.00000
    7     -0.61164    0.00000
    8     -0.59763    0.00000
    9     -0.54318    0.00000

Gap: 1.152 eV
Transition (v -> c):
  (s=0, k=0, n=2, [0.00, 0.00, 0.00]) -> (s=0, k=0, n=3, [0.00, 0.00, 0.00])

Forces in eV/Ang:
  0 Na   -0.03840    0.03258   -0.00879
  1 Na    0.04781   -0.04004    0.01657
  2 Na   -0.01180    0.01046    0.00415
  3 Na   -0.00603    0.00404    0.00026
  4 Na    0.03873   -0.03355    0.00580
  5 Na   -0.03034    0.02654   -0.01799

System changes: positions 

Initializing position-dependent things.

Density initialized from wave functions
           .--------------------------------------.  
          /|                                      |  
         / |                                      |  
        /  |                                      |  
       /   |                                      |  
      /    |                                      |  
     /     |                                      |  
    /      |                                      |  
   /       |                                      |  
  /        |                                      |  
 *         |           Na                         |  
 |         |                                      |  
 |         |                Na                    |  
 |         |                                      |  
 |         |            Na                        |  
 |         |                    Na                |  
 |         |                                      |  
 |         |                 Na                   |  
 |         |                                      |  
 |         |             Na                       |  
 |         .--------------------------------------.  
 |        /                                      /   
 |       /                                      /    
 |      /                                      /     
 |     /                                      /      
 |    /                                      /       
 |   /                                      /        
 |  /                                      /         
 | /                                      /          
 |/                                      /           
 *--------------------------------------*            

Positions:
   0 Na    11.481828    4.995721    9.689235    ( 0.0000,  0.0000,  0.0000)
   1 Na     9.143774    7.093141   10.708827    ( 0.0000,  0.0000,  0.0000)
   2 Na     6.584984    9.354907   11.600591    ( 0.0000,  0.0000,  0.0000)
   3 Na     7.596085    8.018336    4.992397    ( 0.0000,  0.0000,  0.0000)
   4 Na     9.650265    6.417498    7.349829    ( 0.0000,  0.0000,  0.0000)
   5 Na     7.127667    8.732512    8.258442    ( 0.0000,  0.0000,  0.0000)

Unit cell:
           periodic     x           y           z      points  spacing
  1. axis:    no    16.000000    0.000000    0.000000    64     0.2500
  2. axis:    no     0.000000   16.000000    0.000000    64     0.2500
  3. axis:    no     0.000000    0.000000   16.000000    64     0.2500

  Lengths:  16.000000  16.000000  16.000000
  Angles:   90.000000  90.000000  90.000000

Effective grid spacing dv^(1/3) = 0.2500

                     log10-error:    total        iterations:
           time      wfs    density  energy       fermi  poisson
iter:   1  09:40:03  -1.50   +inf    -4.919852    2             
iter:   2  09:40:05  -2.74  -0.93    -4.894736    2             
iter:   3  09:40:08  -2.88  -1.01    -4.835207    2             
iter:   4  09:40:11  -3.83  -1.48    -4.835009    1             
iter:   5  09:40:13  -3.96  -1.56    -4.833664    2             
iter:   6  09:40:16  -4.27  -1.88    -4.833396    2             
iter:   7  09:40:19  -4.77  -2.03    -4.833517    1             
iter:   8  09:40:21  -5.15  -2.27    -4.833607    1             
iter:   9  09:40:24  -5.65  -2.58    -4.833609    1             
iter:  10  09:40:27  -5.97  -2.77    -4.833605    1             
iter:  11  09:40:29  -7.01  -3.22    -4.833605    1             
iter:  12  09:40:32  -7.47  -3.27    -4.833604    1             
iter:  13  09:40:35  -7.33  -3.41    -4.833605    1             
iter:  14  09:40:37  -7.78  -3.46    -4.833604    1             
iter:  15  09:40:40  -8.45  -3.79    -4.833604    1             
iter:  16  09:40:43  -8.35  -3.89    -4.833604    1             
iter:  17  09:40:45  -8.93  -4.16    -4.833604    1             

Converged after 17 iterations.

Dipole moment: (0.064509, -0.056747, -0.011910) |e|*Ang

Energy contributions relative to reference atoms: (reference = -26511.662975)

Kinetic:         +9.406810
Potential:       -8.834423
External:        +0.000000
XC:              -5.406701
Entropy (-ST):   -0.000037
Local:           +0.000728
--------------------------
Free energy:     -4.833623
Extrapolated:    -4.833604

Fermi level: -2.27186

 Band  Eigenvalues  Occupancy
    0     -3.85516    2.00000
    1     -2.91573    1.99999
    2     -2.83649    1.99998
    3     -1.71424    0.00003
    4     -1.54468    0.00000
    5     -1.49875    0.00000
    6     -1.30103    0.00000
    7     -0.62256    0.00000
    8     -0.61906    0.00000
    9     -0.52290    0.00000

Gap: 1.122 eV
Transition (v -> c):
  (s=0, k=0, n=2, [0.00, 0.00, 0.00]) -> (s=0, k=0, n=3, [0.00, 0.00, 0.00])

Forces in eV/Ang:
  0 Na    0.07602   -0.06452    0.02604
  1 Na   -0.08850    0.08259    0.08961
  2 Na    0.05184   -0.04398   -0.03744
  3 Na    0.03629   -0.02807    0.02975
  4 Na   -0.04474    0.02873   -0.13417
  5 Na   -0.03090    0.02524    0.02616

System changes: positions 

Initializing position-dependent things.

Density initialized from wave functions
           .--------------------------------------.  
          /|                                      |  
         / |                                      |  
        /  |                                      |  
       /   |                                      |  
      /    |                                      |  
     /     |                                      |  
    /      |                                      |  
   /       |                                      |  
  /        |                                      |  
 *         |           Na                         |  
 |         |                                      |  
 |         |                Na                    |  
 |         |                                      |  
 |         |            Na                        |  
 |         |                    Na                |  
 |         |                                      |  
 |         |                Na                    |  
 |         |                                      |  
 |         |            Na                        |  
 |         .--------------------------------------.  
 |        /                                      /   
 |       /                                      /    
 |      /                                      /     
 |     /                                      /      
 |    /                                      /       
 |   /                                      /        
 |  /                                      /         
 | /                                      /          
 |/                                      /           
 *--------------------------------------*            

Positions:
   0 Na    11.523668    4.951772    9.739773    ( 0.0000,  0.0000,  0.0000)
   1 Na     9.099489    7.155856   10.865435    ( 0.0000,  0.0000,  0.0000)
   2 Na     6.512269    9.341158   11.481670    ( 0.0000,  0.0000,  0.0000)
   3 Na     7.511396    7.899118    5.039848    ( 0.0000,  0.0000,  0.0000)
   4 Na     9.622316    6.335893    7.241425    ( 0.0000,  0.0000,  0.0000)
   5 Na     7.310975    8.931963    8.235027    ( 0.0000,  0.0000,  0.0000)

Unit cell:
           periodic     x           y           z      points  spacing
  1. axis:    no    16.000000    0.000000    0.000000    64     0.2500
  2. axis:    no     0.000000   16.000000    0.000000    64     0.2500
  3. axis:    no     0.000000    0.000000   16.000000    64     0.2500

  Lengths:  16.000000  16.000000  16.000000
  Angles:   90.000000  90.000000  90.000000

Effective grid spacing dv^(1/3) = 0.2500

                     log10-error:    total        iterations:
           time      wfs    density  energy       fermi  poisson
iter:   1  09:40:50  -1.08   +inf    -4.909533    2             
iter:   2  09:40:52  -2.31  -0.89    -4.889087    2             
iter:   3  09:40:55  -2.83  -0.97    -4.840997    2             
iter:   4  09:40:58  -3.68  -1.38    -4.840755    2             
iter:   5  09:41:00  -3.73  -1.45    -4.840907    2             
iter:   6  09:41:03  -4.23  -1.82    -4.841198    2             
iter:   7  09:41:06  -4.41  -1.89    -4.841631    2             
iter:   8  09:41:08  -5.11  -2.18    -4.841698    1             
iter:   9  09:41:11  -5.12  -2.33    -4.841741    2             
iter:  10  09:41:14  -5.87  -2.85    -4.841746    1             
iter:  11  09:41:16  -6.69  -2.95    -4.841746    1             
iter:  12  09:41:19  -7.22  -2.98    -4.841744    1             
iter:  13  09:41:22  -6.80  -3.06    -4.841747    1             
iter:  14  09:41:24  -7.28  -3.26    -4.841747    1             
iter:  15  09:41:27  -7.47  -3.43    -4.841747    1             
iter:  16  09:41:30  -8.69  -3.55    -4.841747    1             
iter:  17  09:41:32  -8.01  -3.60    -4.841747    1             
iter:  18  09:41:35  -8.70  -3.92    -4.841747    1             
iter:  19  09:41:37  -9.01  -3.97    -4.841747    1             
iter:  20  09:41:40  -9.05  -4.05    -4.841747    1             

Converged after 20 iterations.

Dipole moment: (-0.007201, -0.024693, -0.013417) |e|*Ang

Energy contributions relative to reference atoms: (reference = -26511.662975)

Kinetic:         +8.280567
Potential:       -7.965502
External:        +0.000000
XC:              -5.157525
Entropy (-ST):   -0.000025
Local:           +0.000727
--------------------------
Free energy:     -4.841759
Extrapolated:    -4.841747

Fermi level: -2.26729

 Band  Eigenvalues  Occupancy
    0     -3.81201    2.00000
    1     -2.88072    1.99999
    2     -2.87821    1.99999
    3     -1.68103    0.00002
    4     -1.57587    0.00000
    5     -1.54740    0.00000
    6     -1.27341    0.00000
    7     -0.62683    0.00000
    8     -0.60072    0.00000
    9     -0.57826    0.00000

Gap: 1.197 eV
Transition (v -> c):
  (s=0, k=0, n=2, [0.00, 0.00, 0.00]) -> (s=0, k=0, n=3, [0.00, 0.00, 0.00])

Forces in eV/Ang:
  0 Na   -0.03287    0.02624   -0.00060
  1 Na    0.00279   -0.00620   -0.05241
  2 Na    0.02191   -0.00611    0.01388
  3 Na    0.01877   -0.00816   -0.00586
  4 Na   -0.00868    0.01410    0.03766
  5 Na   -0.00194   -0.02014    0.00739

System changes: positions 

Initializing position-dependent things.

Density initialized from wave functions
           .--------------------------------------.  
          /|                                      |  
         / |                                      |  
        /  |                                      |  
       /   |                                      |  
      /    |                                      |  
     /     |                                      |  
    /      |                                      |  
   /       |                                      |  
  /        |                                      |  
 *         |           Na                         |  
 |         |                                      |  
 |         |                Na                    |  
 |         |                                      |  
 |         |           Na                         |  
 |         |                    Na                |  
 |         |                                      |  
 |         |                 Na                   |  
 |         |                                      |  
 |         |             Na                       |  
 |         .--------------------------------------.  
 |        /                                      /   
 |       /                                      /    
 |      /                                      /     
 |     /                                      /      
 |    /                                      /       
 |   /                                      /        
 |  /                                      /         
 | /                                      /          
 |/                                      /           
 *--------------------------------------*            

Positions:
   0 Na    11.504325    4.982351    9.674685    ( 0.0000,  0.0000,  0.0000)
   1 Na     9.117024    7.113034   10.769639    ( 0.0000,  0.0000,  0.0000)
   2 Na     6.670823    9.315308   11.602070    ( 0.0000,  0.0000,  0.0000)
   3 Na     7.672407    8.058930    5.028568    ( 0.0000,  0.0000,  0.0000)
   4 Na     9.661042    6.452041    7.244683    ( 0.0000,  0.0000,  0.0000)
   5 Na     6.961506    8.688591    8.277424    ( 0.0000,  0.0000,  0.0000)

Unit cell:
           periodic     x           y           z      points  spacing
  1. axis:    no    16.000000    0.000000    0.000000    64     0.2500
  2. axis:    no     0.000000   16.000000    0.000000    64     0.2500
  3. axis:    no     0.000000    0.000000   16.000000    64     0.2500

  Lengths:  16.000000  16.000000  16.000000
  Angles:   90.000000  90.000000  90.000000

Effective grid spacing dv^(1/3) = 0.2500

                     log10-error:    total        iterations:
           time      wfs    density  energy       fermi  poisson
iter:   1  09:41:45  -0.98   +inf    -4.849260    2             
iter:   2  09:41:47  -2.18  -1.16    -4.849730    1             
iter:   3  09:41:50  -2.96  -1.19    -4.846126    1             
iter:   4  09:41:53  -3.75  -1.48    -4.847010    2             
iter:   5  09:41:55  -3.99  -1.55    -4.849149    2             
iter:   6  09:41:58  -4.43  -1.86    -4.849976    2             
iter:   7  09:42:01  -4.43  -1.98    -4.850410    2             
iter:   8  09:42:03  -5.24  -2.42    -4.850447    1             
iter:   9  09:42:06  -5.22  -2.49    -4.850483    2             
iter:  10  09:42:09  -6.44  -3.00    -4.850480    1             
iter:  11  09:42:11  -7.18  -3.11    -4.850480    1             
iter:  12  09:42:14  -7.05  -3.15    -4.850480    1             
iter:  13  09:42:17  -7.86  -3.49    -4.850480    1             
iter:  14  09:42:19  -8.01  -3.55    -4.850480    1             
iter:  15  09:42:22  -8.79  -3.63    -4.850480    1             
iter:  16  09:42:25  -8.16  -3.66    -4.850480    1             
iter:  17  09:42:27  -8.90  -3.94    -4.850480    1             
iter:  18  09:42:30  -8.95  -3.97    -4.850480    1             
iter:  19  09:42:33  -9.77  -4.12    -4.850480    1             

Converged after 19 iterations.

Dipole moment: (0.027130, -0.009950, -0.014124) |e|*Ang

Energy contributions relative to reference atoms: (reference = -26511.662975)

Kinetic:         +9.005273
Potential:       -8.546613
External:        +0.000000
XC:              -5.310092
Entropy (-ST):   -0.000023
Local:           +0.000964
--------------------------
Free energy:     -4.850491
Extrapolated:    -4.850480

Fermi level: -2.26970

 Band  Eigenvalues  Occupancy
    0     -3.82979    2.00000
    1     -2.89111    1.99999
    2     -2.88407    1.99999
    3     -1.67899    0.00001
    4     -1.56411    0.00000
    5     -1.54120    0.00000
    6     -1.28955    0.00000
    7     -0.61081    0.00000
    8     -0.60095    0.00000
    9     -0.54226    0.00000

Gap: 1.205 eV
Transition (v -> c):
  (s=0, k=0, n=2, [0.00, 0.00, 0.00]) -> (s=0, k=0, n=3, [0.00, 0.00, 0.00])

Forces in eV/Ang:
  0 Na    0.01155   -0.00939    0.00294
  1 Na   -0.01182    0.00883   -0.01562
  2 Na   -0.00482    0.00111    0.00156
  3 Na   -0.00533    0.00042   -0.01029
  4 Na   -0.01242    0.00951    0.01174
  5 Na    0.02316   -0.01022    0.00963

System changes: positions 

Initializing position-dependent things.

Density initialized from wave functions
           .--------------------------------------.  
          /|                                      |  
         / |                                      |  
        /  |                                      |  
       /   |                                      |  
      /    |                                      |  
     /     |                                      |  
    /      |                                      |  
   /       |                                      |  
  /        |                                      |  
 *         |           Na                         |  
 |         |                                      |  
 |         |                Na                    |  
 |         |                                      |  
 |         |            Na                        |  
 |         |                    Na                |  
 |         |                                      |  
 |         |                Na                    |  
 |         |                                      |  
 |         |             Na                       |  
 |         .--------------------------------------.  
 |        /                                      /   
 |       /                                      /    
 |      /                                      /     
 |     /                                      /      
 |    /                                      /       
 |   /                                      /        
 |  /                                      /         
 | /                                      /          
 |/                                      /           
 *--------------------------------------*            

Positions:
   0 Na    11.435336    5.016797    9.777318    ( 0.0000,  0.0000,  0.0000)
   1 Na     9.098058    7.147707   10.752553    ( 0.0000,  0.0000,  0.0000)
   2 Na     6.661047    9.311195   11.603773    ( 0.0000,  0.0000,  0.0000)
   3 Na     7.660116    7.844245    4.961421    ( 0.0000,  0.0000,  0.0000)
   4 Na     9.604506    6.388619    7.242958    ( 0.0000,  0.0000,  0.0000)
   5 Na     7.120351    8.904683    8.265106    ( 0.0000,  0.0000,  0.0000)

Unit cell:
           periodic     x           y           z      points  spacing
  1. axis:    no    16.000000    0.000000    0.000000    64     0.2500
  2. axis:    no     0.000000   16.000000    0.000000    64     0.2500
  3. axis:    no     0.000000    0.000000   16.000000    64     0.2500

  Lengths:  16.000000  16.000000  16.000000
  Angles:   90.000000  90.000000  90.000000

Effective grid spacing dv^(1/3) = 0.2500

                     log10-error:    total        iterations:
           time      wfs    density  energy       fermi  poisson
iter:   1  09:42:37  -1.22   +inf    -4.845857    2             
iter:   2  09:42:40  -2.45  -1.25    -4.845681    1             
iter:   3  09:42:42  -3.15  -1.28    -4.841661    1             
iter:   4  09:42:45  -4.04  -1.65    -4.841715    1             
iter:   5  09:42:47  -4.35  -1.70    -4.842302    1             
iter:   6  09:42:50  -4.68  -1.96    -4.842640    1             
iter:   7  09:42:53  -4.67  -2.08    -4.842974    1             
iter:   8  09:42:55  -5.51  -2.55    -4.843000    1             
iter:   9  09:42:58  -5.54  -2.64    -4.843022    1             
iter:  10  09:43:01  -6.56  -3.13    -4.843021    1             
iter:  11  09:43:03  -7.34  -3.37    -4.843021    1             
iter:  12  09:43:06  -7.64  -3.41    -4.843021    1             
iter:  13  09:43:09  -8.13  -3.63    -4.843021    1             
iter:  14  09:43:11  -8.50  -3.74    -4.843020    1             
iter:  15  09:43:14  -9.04  -3.82    -4.843021    1             
iter:  16  09:43:17  -8.30  -3.87    -4.843021    1             
iter:  17  09:43:19  -9.27  -4.34    -4.843021    1             

Converged after 17 iterations.

Dipole moment: (-0.008970, -0.002534, -0.013518) |e|*Ang

Energy contributions relative to reference atoms: (reference = -26511.662975)

Kinetic:         +9.043735
Potential:       -8.574458
External:        +0.000000
XC:              -5.313293
Entropy (-ST):   -0.000026
Local:           +0.001007
--------------------------
Free energy:     -4.843034
Extrapolated:    -4.843021

Fermi level: -2.27574

 Band  Eigenvalues  Occupancy
    0     -3.83031    2.00000
    1     -2.89915    1.99999
    2     -2.87582    1.99999
    3     -1.69510    0.00002
    4     -1.55787    0.00000
    5     -1.53242    0.00000
    6     -1.28926    0.00000
    7     -0.61008    0.00000
    8     -0.59148    0.00000
    9     -0.56293    0.00000

Gap: 1.181 eV
Transition (v -> c):
  (s=0, k=0, n=2, [0.00, 0.00, 0.00]) -> (s=0, k=0, n=3, [0.00, 0.00, 0.00])

Forces in eV/Ang:
  0 Na    0.03445   -0.03296   -0.01455
  1 Na   -0.01759    0.01647   -0.00730
  2 Na   -0.01638    0.02170   -0.00333
  3 Na   -0.02516    0.03379    0.02845
  4 Na    0.00570    0.00086    0.03764
  5 Na    0.01893   -0.03986   -0.04078

System changes: positions 

Initializing position-dependent things.

Density initialized from wave functions
           .--------------------------------------.  
          /|                                      |  
         / |                                      |  
        /  |                                      |  
       /   |                                      |  
      /    |                                      |  
     /     |                                      |  
    /      |                                      |  
   /       |                                      |  
  /        |                                      |  
 *         |           Na                         |  
 |         |                                      |  
 |         |                Na                    |  
 |         |                                      |  
 |         |            Na                        |  
 |         |                    Na                |  
 |         |                                      |  
 |         |                Na                    |  
 |         |                                      |  
 |         |             Na                       |  
 |         .--------------------------------------.  
 |        /                                      /   
 |       /                                      /    
 |      /                                      /     
 |     /                                      /      
 |    /                                      /       
 |   /                                      /        
 |  /                                      /         
 | /                                      /          
 |/                                      /           
 *--------------------------------------*            

Positions:
   0 Na    11.481823    4.945377    9.778487    ( 0.0000,  0.0000,  0.0000)
   1 Na     9.040178    7.212691   10.737643    ( 0.0000,  0.0000,  0.0000)
   2 Na     6.677244    9.373960   11.629733    ( 0.0000,  0.0000,  0.0000)
   3 Na     7.635945    7.852639    5.043103    ( 0.0000,  0.0000,  0.0000)
   4 Na     9.631437    6.352388    7.333693    ( 0.0000,  0.0000,  0.0000)
   5 Na     7.108481    8.876205    8.083757    ( 0.0000,  0.0000,  0.0000)

Unit cell:
           periodic     x           y           z      points  spacing
  1. axis:    no    16.000000    0.000000    0.000000    64     0.2500
  2. axis:    no     0.000000   16.000000    0.000000    64     0.2500
  3. axis:    no     0.000000    0.000000   16.000000    64     0.2500

  Lengths:  16.000000  16.000000  16.000000
  Angles:   90.000000  90.000000  90.000000

Effective grid spacing dv^(1/3) = 0.2500

                     log10-error:    total        iterations:
           time      wfs    density  energy       fermi  poisson
iter:   1  09:43:24  -1.46   +inf    -4.862221    2             
iter:   2  09:43:27  -2.66  -1.10    -4.854177    2             
iter:   3  09:43:29  -2.98  -1.16    -4.832420    2             
iter:   4  09:43:32  -4.05  -1.48    -4.832809    2             
iter:   5  09:43:35  -4.10  -1.54    -4.832889    2             
iter:   6  09:43:37  -4.36  -1.83    -4.833065    2             
iter:   7  09:43:40  -4.66  -1.99    -4.833487    2             
iter:   8  09:43:43  -5.22  -2.34    -4.833563    1             
iter:   9  09:43:45  -5.56  -2.57    -4.833565    1             
iter:  10  09:43:48  -6.53  -2.97    -4.833563    1             
iter:  11  09:43:51  -7.24  -3.19    -4.833563    1             
iter:  12  09:43:53  -7.61  -3.26    -4.833563    1             
iter:  13  09:43:56  -8.18  -3.40    -4.833563    1             
iter:  14  09:43:59  -7.84  -3.44    -4.833563    1             
iter:  15  09:44:01  -8.54  -3.58    -4.833563    1             
iter:  16  09:44:04  -8.11  -3.63    -4.833563    1             
iter:  17  09:44:07  -8.99  -4.00    -4.833563    1             
iter:  18  09:44:09  -9.50  -4.04    -4.833563    1             

Converged after 18 iterations.

Dipole moment: (0.014001, -0.024097, -0.051946) |e|*Ang

Energy contributions relative to reference atoms: (reference = -26511.662975)

Kinetic:         +8.982772
Potential:       -8.519386
External:        +0.000000
XC:              -5.297866
Entropy (-ST):   -0.000027
Local:           +0.000931
--------------------------
Free energy:     -4.833576
Extrapolated:    -4.833563

Fermi level: -2.27069

 Band  Eigenvalues  Occupancy
    0     -3.83072    2.00000
    1     -2.90646    1.99999
    2     -2.86143    1.99999
    3     -1.69048    0.00002
    4     -1.58022    0.00000
    5     -1.51272    0.00000
    6     -1.28917    0.00000
    7     -0.61234    0.00000
    8     -0.60198    0.00000
    9     -0.56203    0.00000

Gap: 1.171 eV
Transition (v -> c):
  (s=0, k=0, n=2, [0.00, 0.00, 0.00]) -> (s=0, k=0, n=3, [0.00, 0.00, 0.00])

Forces in eV/Ang:
  0 Na   -0.01651    0.01399    0.00561
  1 Na    0.02701   -0.02307   -0.01275
  2 Na   -0.01209    0.01453   -0.07174
  3 Na    0.00324   -0.01290   -0.08632
  4 Na    0.00442   -0.00220    0.00254
  5 Na   -0.00619    0.00979    0.16266

System changes: positions 

Initializing position-dependent things.

Density initialized from wave functions
           .--------------------------------------.  
          /|                                      |  
         / |                                      |  
        /  |                                      |  
       /   |                                      |  
      /    |                                      |  
     /     |                                      |  
    /      |                                      |  
   /       |                                      |  
  /        |                                      |  
 *         |           Na                         |  
 |         |                                      |  
 |         |                Na                    |  
 |         |                                      |  
 |         |            Na                        |  
 |         |                    Na                |  
 |         |                                      |  
 |         |                Na                    |  
 |         |                                      |  
 |         |             Na                       |  
 |         .--------------------------------------.  
 |        /                                      /   
 |       /                                      /    
 |      /                                      /     
 |     /                                      /      
 |    /                                      /       
 |   /                                      /        
 |  /                                      /         
 | /                                      /          
 |/                                      /           
 *--------------------------------------*            

Positions:
   0 Na    11.500431    5.046298    9.670343    ( 0.0000,  0.0000,  0.0000)
   1 Na     9.159992    7.051094   10.812164    ( 0.0000,  0.0000,  0.0000)
   2 Na     6.551207    9.203777   11.675728    ( 0.0000,  0.0000,  0.0000)
   3 Na     7.603516    8.057858    5.035745    ( 0.0000,  0.0000,  0.0000)
   4 Na     9.576075    6.499644    7.136066    ( 0.0000,  0.0000,  0.0000)
   5 Na     7.203297    8.753827    8.262337    ( 0.0000,  0.0000,  0.0000)

Unit cell:
           periodic     x           y           z      points  spacing
  1. axis:    no    16.000000    0.000000    0.000000    64     0.2500
  2. axis:    no     0.000000   16.000000    0.000000    64     0.2500
  3. axis:    no     0.000000    0.000000   16.000000    64     0.2500

  Lengths:  16.000000  16.000000  16.000000
  Angles:   90.000000  90.000000  90.000000

Effective grid spacing dv^(1/3) = 0.2500

                     log10-error:    total        iterations:
           time      wfs    density  energy       fermi  poisson
iter:   1  09:44:14  -0.96   +inf    -4.842149    2             
iter:   2  09:44:17  -2.12  -0.98    -4.840392    2             
iter:   3  09:44:19  -2.77  -1.01    -4.824262    1             
iter:   4  09:44:22  -3.56  -1.35    -4.824667    2             
iter:   5  09:44:24  -3.94  -1.43    -4.826106    2             
iter:   6  09:44:27  -4.22  -1.65    -4.827600    2             
iter:   7  09:44:30  -4.31  -1.83    -4.828427    2             
iter:   8  09:44:32  -5.13  -2.32    -4.828493    1             
iter:   9  09:44:35  -5.14  -2.39    -4.828540    1             
iter:  10  09:44:38  -6.05  -2.68    -4.828523    1             
iter:  11  09:44:40  -6.74  -3.10    -4.828524    1             
iter:  12  09:44:43  -7.45  -3.22    -4.828524    1             
iter:  13  09:44:46  -8.06  -3.31    -4.828524    1             
iter:  14  09:44:48  -7.50  -3.36    -4.828525    1             
iter:  15  09:44:51  -8.40  -3.68    -4.828525    1             
iter:  16  09:44:54  -8.14  -3.75    -4.828525    1             
iter:  17  09:44:56  -9.01  -4.11    -4.828525    1             

Converged after 17 iterations.

Dipole moment: (-0.006022, -0.007496, -0.101973) |e|*Ang

Energy contributions relative to reference atoms: (reference = -26511.662975)

Kinetic:         +9.193702
Potential:       -8.681320
External:        +0.000000
XC:              -5.341839
Entropy (-ST):   -0.000034
Local:           +0.000950
--------------------------
Free energy:     -4.828542
Extrapolated:    -4.828525

Fermi level: -2.26880

 Band  Eigenvalues  Occupancy
    0     -3.84096    2.00000
    1     -2.93419    2.00000
    2     -2.83500    1.99998
    3     -1.70515    0.00003
    4     -1.56244    0.00000
    5     -1.51642    0.00000
    6     -1.29532    0.00000
    7     -0.59571    0.00000
    8     -0.59332    0.00000
    9     -0.57252    0.00000

Gap: 1.130 eV
Transition (v -> c):
  (s=0, k=0, n=2, [0.00, 0.00, 0.00]) -> (s=0, k=0, n=3, [0.00, 0.00, 0.00])

Forces in eV/Ang:
  0 Na    0.02611   -0.02588   -0.05260
  1 Na   -0.07571    0.06143   -0.01013
  2 Na    0.04084   -0.02620   -0.06975
  3 Na   -0.03272    0.02486   -0.08405
  4 Na    0.09395   -0.07440    0.09316
  5 Na   -0.05257    0.04023    0.12344

System changes: positions 

Initializing position-dependent things.

Density initialized from wave functions
           .--------------------------------------.  
          /|                                      |  
         / |                                      |  
        /  |                                      |  
       /   |                                      |  
      /    |                                      |  
     /     |                                      |  
    /      |                                      |  
   /       |                                      |  
  /        |                                      |  
 *         |           Na                         |  
 |         |                                      |  
 |         |                Na                    |  
 |         |                                      |  
 |         |            Na                        |  
 |         |                    Na                |  
 |         |                                      |  
 |         |                 Na                   |  
 |         |                                      |  
 |         |            Na                        |  
 |         .--------------------------------------.  
 |        /                                      /   
 |       /                                      /    
 |      /                                      /     
 |     /                                      /      
 |    /                                      /       
 |   /                                      /        
 |  /                                      /         
 | /                                      /          
 |/                                      /           
 *--------------------------------------*            

Positions:
   0 Na    11.544584    5.084776    9.511206    ( 0.0000,  0.0000,  0.0000)
   1 Na     9.064316    7.083754   10.848914    ( 0.0000,  0.0000,  0.0000)
   2 Na     6.564449    8.987582   11.698926    ( 0.0000,  0.0000,  0.0000)
   3 Na     7.517214    8.201017    4.935222    ( 0.0000,  0.0000,  0.0000)
   4 Na     9.706289    6.438394    7.170234    ( 0.0000,  0.0000,  0.0000)
   5 Na     7.210421    8.817285    8.419060    ( 0.0000,  0.0000,  0.0000)

Unit cell:
           periodic     x           y           z      points  spacing
  1. axis:    no    16.000000    0.000000    0.000000    64     0.2500
  2. axis:    no     0.000000   16.000000    0.000000    64     0.2500
  3. axis:    no     0.000000    0.000000   16.000000    64     0.2500

  Lengths:  16.000000  16.000000  16.000000
  Angles:   90.000000  90.000000  90.000000

Effective grid spacing dv^(1/3) = 0.2500

                     log10-error:    total        iterations:
           time      wfs    density  energy       fermi  poisson
iter:   1  09:45:01  -1.01   +inf    -5.040942    2             
iter:   2  09:45:03  -2.22  -0.69    -4.974041    2             
iter:   3  09:45:06  -2.41  -0.78    -4.821717    2             
iter:   4  09:45:09  -3.26  -1.26    -4.818717    2             
iter:   5  09:45:11  -3.37  -1.32    -4.815200    2             
iter:   6  09:45:14  -3.96  -1.71    -4.814971    2             
iter:   7  09:45:16  -4.36  -1.77    -4.815458    1             
iter:   8  09:45:19  -4.71  -1.93    -4.815674    2             
iter:   9  09:45:22  -5.48  -2.33    -4.815653    1             
iter:  10  09:45:24  -5.55  -2.57    -4.815682    1             
iter:  11  09:45:27  -6.66  -2.90    -4.815676    1             
iter:  12  09:45:30  -6.63  -3.03    -4.815680    1             
iter:  13  09:45:32  -7.57  -3.30    -4.815680    1             
iter:  14  09:45:35  -8.42  -3.33    -4.815680    1             
iter:  15  09:45:38  -7.42  -3.36    -4.815680    1             
iter:  16  09:45:40  -8.31  -3.94    -4.815680    1             
iter:  17  09:45:43  -8.75  -4.02    -4.815680    1             

Converged after 17 iterations.

Dipole moment: (-0.027299, 0.008352, 0.048440) |e|*Ang

Energy contributions relative to reference atoms: (reference = -26511.662975)

Kinetic:         +8.709944
Potential:       -8.297231
External:        +0.000000
XC:              -5.229283
Entropy (-ST):   -0.000036
Local:           +0.000909
--------------------------
Free energy:     -4.815698
Extrapolated:    -4.815680

Fermi level: -2.27328

 Band  Eigenvalues  Occupancy
    0     -3.82686    2.00000
    1     -2.92722    2.00000
    2     -2.83798    1.99998
    3     -1.71144    0.00003
    4     -1.58784    0.00000
    5     -1.51150    0.00000
    6     -1.28620    0.00000
    7     -0.62633    0.00000
    8     -0.58654    0.00000
    9     -0.55769    0.00000

Gap: 1.127 eV
Transition (v -> c):
  (s=0, k=0, n=2, [0.00, 0.00, 0.00]) -> (s=0, k=0, n=3, [0.00, 0.00, 0.00])

Forces in eV/Ang:
  0 Na    0.03120   -0.02476    0.06038
  1 Na    0.09712   -0.08050   -0.05852
  2 Na   -0.06628    0.05678    0.05242
  3 Na    0.04372   -0.02086    0.13579
  4 Na   -0.10524    0.08974   -0.05067
  5 Na   -0.00068   -0.02031   -0.13952

System changes: positions 

Initializing position-dependent things.

Density initialized from wave functions
           .--------------------------------------.  
          /|                                      |  
         / |                                      |  
        /  |                                      |  
       /   |                                      |  
      /    |                                      |  
     /     |                                      |  
    /      |                                      |  
   /       |                                      |  
  /        |                                      |  
 *         |          Na                          |  
 |         |                                      |  
 |         |                Na                    |  
 |         |                                      |  
 |         |            Na                        |  
 |         |                     Na               |  
 |         |                                      |  
 |         |                 Na                   |  
 |         |             Na                       |  
 |         |                                      |  
 |         .--------------------------------------.  
 |        /                                      /   
 |       /                                      /    
 |      /                                      /     
 |     /                                      /      
 |    /                                      /       
 |   /                                      /        
 |  /                                      /         
 | /                                      /          
 |/                                      /           
 *--------------------------------------*            

Positions:
   0 Na    11.666396    5.021574    9.507320    ( 0.0000,  0.0000,  0.0000)
   1 Na     9.141682    6.993119   10.723489    ( 0.0000,  0.0000,  0.0000)
   2 Na     6.481027    8.963456   11.741310    ( 0.0000,  0.0000,  0.0000)
   3 Na     7.545405    8.249367    5.081850    ( 0.0000,  0.0000,  0.0000)
   4 Na     9.640637    6.528233    7.168743    ( 0.0000,  0.0000,  0.0000)
   5 Na     7.138511    8.857402    8.355893    ( 0.0000,  0.0000,  0.0000)

Unit cell:
           periodic     x           y           z      points  spacing
  1. axis:    no    16.000000    0.000000    0.000000    64     0.2500
  2. axis:    no     0.000000   16.000000    0.000000    64     0.2500
  3. axis:    no     0.000000    0.000000   16.000000    64     0.2500

  Lengths:  16.000000  16.000000  16.000000
  Angles:   90.000000  90.000000  90.000000

Effective grid spacing dv^(1/3) = 0.2500

                     log10-error:    total        iterations:
           time      wfs    density  energy       fermi  poisson
iter:   1  09:45:48  -1.14   +inf    -4.954430    3             
iter:   2  09:45:50  -2.30  -0.83    -4.925133    2             
iter:   3  09:45:53  -2.59  -0.90    -4.848390    2             
iter:   4  09:45:56  -3.55  -1.35    -4.847992    1             
iter:   5  09:45:58  -3.68  -1.43    -4.846004    1             
iter:   6  09:46:01  -4.04  -1.77    -4.845829    2             
iter:   7  09:46:04  -4.43  -1.89    -4.846120    1             
iter:   8  09:46:06  -4.92  -2.12    -4.846274    1             
iter:   9  09:46:09  -5.27  -2.42    -4.846285    1             
iter:  10  09:46:12  -5.90  -2.72    -4.846280    1             
iter:  11  09:46:14  -6.71  -2.88    -4.846279    1             
iter:  12  09:46:17  -6.93  -2.94    -4.846276    1             
iter:  13  09:46:20  -7.24  -3.12    -4.846276    1             
iter:  14  09:46:22  -7.64  -3.19    -4.846275    1             
iter:  15  09:46:25  -7.87  -3.23    -4.846275    1             
iter:  16  09:46:28  -8.05  -3.28    -4.846276    1             
iter:  17  09:46:30  -7.09  -3.33    -4.846277    1             
iter:  18  09:46:33  -8.38  -3.96    -4.846277    1             
iter:  19  09:46:36  -9.12  -4.16    -4.846277    1             

Converged after 19 iterations.

Dipole moment: (0.026304, -0.030988, -0.020113) |e|*Ang

Energy contributions relative to reference atoms: (reference = -26511.662975)

Kinetic:         +8.365936
Potential:       -8.025250
External:        +0.000000
XC:              -5.187771
Entropy (-ST):   -0.000030
Local:           +0.000823
--------------------------
Free energy:     -4.846292
Extrapolated:    -4.846277

Fermi level: -2.27399

 Band  Eigenvalues  Occupancy
    0     -3.82076    2.00000
    1     -2.88805    1.99999
    2     -2.86628    1.99999
    3     -1.70222    0.00002
    4     -1.55639    0.00000
    5     -1.53913    0.00000
    6     -1.28015    0.00000
    7     -0.62183    0.00000
    8     -0.61532    0.00000
    9     -0.55836    0.00000

Gap: 1.164 eV
Transition (v -> c):
  (s=0, k=0, n=2, [0.00, 0.00, 0.00]) -> (s=0, k=0, n=3, [0.00, 0.00, 0.00])

Forces in eV/Ang:
  0 Na   -0.02664    0.01696   -0.01117
  1 Na   -0.01848    0.01217   -0.00050
  2 Na    0.03673   -0.01489   -0.03688
  3 Na    0.01418   -0.00776   -0.01380
  4 Na    0.00440    0.00426    0.01445
  5 Na   -0.01006   -0.01045    0.04780

System changes: positions 

Initializing position-dependent things.

Density initialized from wave functions
           .--------------------------------------.  
          /|                                      |  
         / |                                      |  
        /  |                                      |  
       /   |                                      |  
      /    |                                      |  
     /     |                                      |  
    /      |                                      |  
   /       |                                      |  
  /        |                                      |  
 *         |           Na                         |  
 |         |                                      |  
 |         |                Na                    |  
 |         |                                      |  
 |         |            Na                        |  
 |         |                    Na                |  
 |         |                                      |  
 |         |                 Na                   |  
 |         |                                      |  
 |         |             Na                       |  
 |         .--------------------------------------.  
 |        /                                      /   
 |       /                                      /    
 |      /                                      /     
 |     /                                      /      
 |    /                                      /       
 |   /                                      /        
 |  /                                      /         
 | /                                      /          
 |/                                      /           
 *--------------------------------------*            

Positions:
   0 Na    11.540713    4.999108    9.640477    ( 0.0000,  0.0000,  0.0000)
   1 Na     9.115274    7.088906   10.772151    ( 0.0000,  0.0000,  0.0000)
   2 Na     6.588189    9.212335   11.615664    ( 0.0000,  0.0000,  0.0000)
   3 Na     7.601362    8.072815    5.027403    ( 0.0000,  0.0000,  0.0000)
   4 Na     9.639888    6.455151    7.228789    ( 0.0000,  0.0000,  0.0000)
   5 Na     7.108283    8.784362    8.308421    ( 0.0000,  0.0000,  0.0000)

Unit cell:
           periodic     x           y           z      points  spacing
  1. axis:    no    16.000000    0.000000    0.000000    64     0.2500
  2. axis:    no     0.000000   16.000000    0.000000    64     0.2500
  3. axis:    no     0.000000    0.000000   16.000000    64     0.2500

  Lengths:  16.000000  16.000000  16.000000
  Angles:   90.000000  90.000000  90.000000

Effective grid spacing dv^(1/3) = 0.2500

                     log10-error:    total        iterations:
           time      wfs    density  energy       fermi  poisson
iter:   1  09:46:40  -1.13   +inf    -4.856330    2             
iter:   2  09:46:42  -2.29  -1.14    -4.856166    2             
iter:   3  09:46:45  -3.03  -1.17    -4.849872    2             
iter:   4  09:46:48  -3.86  -1.51    -4.849951    2             
iter:   5  09:46:50  -4.21  -1.58    -4.850476    2             
iter:   6  09:46:53  -4.75  -1.90    -4.850692    1             
iter:   7  09:46:56  -4.76  -2.04    -4.851081    2             
iter:   8  09:46:58  -5.40  -2.38    -4.851160    2             
iter:   9  09:47:01  -5.46  -2.55    -4.851178    2             
iter:  10  09:47:04  -6.48  -3.03    -4.851177    1             
iter:  11  09:47:06  -7.23  -3.14    -4.851177    1             
iter:  12  09:47:09  -7.44  -3.18    -4.851177    1             
iter:  13  09:47:12  -8.07  -3.35    -4.851177    1             
iter:  14  09:47:14  -7.42  -3.41    -4.851178    1             
iter:  15  09:47:17  -8.28  -3.63    -4.851178    1             
iter:  16  09:47:20  -8.85  -3.73    -4.851178    1             
iter:  17  09:47:22  -8.44  -3.76    -4.851178    1             
iter:  18  09:47:25  -9.08  -4.08    -4.851178    1             

Converged after 18 iterations.

Dipole moment: (0.016391, -0.017195, -0.010907) |e|*Ang

Energy contributions relative to reference atoms: (reference = -26511.662975)

Kinetic:         +8.999503
Potential:       -8.535405
External:        +0.000000
XC:              -5.316341
Entropy (-ST):   -0.000025
Local:           +0.001078
--------------------------
Free energy:     -4.851190
Extrapolated:    -4.851178

Fermi level: -2.27237

 Band  Eigenvalues  Occupancy
    0     -3.83368    2.00000
    1     -2.88664    1.99999
    2     -2.88185    1.99999
    3     -1.68987    0.00002
    4     -1.55513    0.00000
    5     -1.53444    0.00000
    6     -1.29081    0.00000
    7     -0.60834    0.00000
    8     -0.60394    0.00000
    9     -0.54697    0.00000

Gap: 1.192 eV
Transition (v -> c):
  (s=0, k=0, n=2, [0.00, 0.00, 0.00]) -> (s=0, k=0, n=3, [0.00, 0.00, 0.00])

Forces in eV/Ang:
  0 Na    0.00170   -0.00270    0.00068
  1 Na   -0.00269    0.00165   -0.00920
  2 Na    0.00264    0.00232    0.01046
  3 Na    0.00606   -0.00253    0.00438
  4 Na   -0.00588    0.00696    0.00482
  5 Na   -0.00168   -0.00547   -0.01106

System changes: positions 

Initializing position-dependent things.

Density initialized from wave functions
           .--------------------------------------.  
          /|                                      |  
         / |                                      |  
        /  |                                      |  
       /   |                                      |  
      /    |                                      |  
     /     |                                      |  
    /      |                                      |  
   /       |                                      |  
  /        |                                      |  
 *         |                                      |  
 |         |          Na                          |  
 |         |                                      |  
 |         |       Na      Na                     |  
 |         |                Na                    |  
 |         |                                      |  
 |         |                                      |  
 |         |             Na   Na                  |  
 |         |                                      |  
 |         |                                      |  
 |         .--------------------------------------.  
 |        /                                      /   
 |       /                                      /    
 |      /                                      /     
 |     /                                      /      
 |    /                                      /       
 |   /                                      /        
 |  /                                      /         
 | /                                      /          
 |/                                      /           
 *--------------------------------------*            

Positions:
   0 Na     8.210231    9.489933    8.656516    ( 0.0000,  0.0000,  0.0000)
   1 Na     6.417931    8.101846   10.968460    ( 0.0000,  0.0000,  0.0000)
   2 Na     5.009862    9.947279    8.321395    ( 0.0000,  0.0000,  0.0000)
   3 Na     7.211492    9.790525    5.577356    ( 0.0000,  0.0000,  0.0000)
   4 Na     9.992557    7.848605    6.505352    ( 0.0000,  0.0000,  0.0000)
   5 Na     9.477264    6.754058    9.822530    ( 0.0000,  0.0000,  0.0000)

Unit cell:
           periodic     x           y           z      points  spacing
  1. axis:    no    16.000000    0.000000    0.000000    64     0.2500
  2. axis:    no     0.000000   16.000000    0.000000    64     0.2500
  3. axis:    no     0.000000    0.000000   16.000000    64     0.2500

  Lengths:  16.000000  16.000000  16.000000
  Angles:   90.000000  90.000000  90.000000

Effective grid spacing dv^(1/3) = 0.2500

                     log10-error:    total        iterations:
           time      wfs    density  energy       fermi  poisson
iter:   1  09:47:29  +0.34   +inf    -6.923559    23            
[...]
 |         |             Na   Na                  |  
 |         |                                      |  
 |         |                                      |  
 |         .--------------------------------------.  
 |        /                                      /   
 |       /                                      /    
 |      /                                      /     
 |     /                                      /      
 |    /                                      /       
 |   /                                      /        
 |  /                                      /         
 | /                                      /          
 |/                                      /           
 *--------------------------------------*            

Positions:
   0 Na     8.266145    9.599333    8.690638    ( 0.0000,  0.0000,  0.0000)
   1 Na     6.390180    8.048616   11.006922    ( 0.0000,  0.0000,  0.0000)
   2 Na     4.942367    9.967777    8.318164    ( 0.0000,  0.0000,  0.0000)
   3 Na     7.190357    9.811521    5.513967    ( 0.0000,  0.0000,  0.0000)
   4 Na    10.029494    7.792607    6.473220    ( 0.0000,  0.0000,  0.0000)
   5 Na     9.499635    6.709652    9.847531    ( 0.0000,  0.0000,  0.0000)

Unit cell:
           periodic     x           y           z      points  spacing
  1. axis:    no    16.000000    0.000000    0.000000    64     0.2500
  2. axis:    no     0.000000   16.000000    0.000000    64     0.2500
  3. axis:    no     0.000000    0.000000   16.000000    64     0.2500

  Lengths:  16.000000  16.000000  16.000000
  Angles:   90.000000  90.000000  90.000000

Effective grid spacing dv^(1/3) = 0.2500

                     log10-error:    total        iterations:
           time      wfs    density  energy       fermi  poisson
iter:   1  09:49:43  -1.40   +inf    -4.913004    4             
iter:   2  09:49:45  -2.44  -1.09    -4.907940    2             
iter:   3  09:49:48  -2.61  -1.13    -4.888747    4             
iter:   4  09:49:51  -3.80  -1.58    -4.887385    2             
iter:   5  09:49:53  -4.41  -1.73    -4.886918    2             
iter:   6  09:49:56  -3.84  -1.92    -4.887548    2             
iter:   7  09:49:59  -4.49  -1.83    -4.886699    2             
iter:   8  09:50:01  -5.35  -2.26    -4.886706    1             
iter:   9  09:50:04  -5.31  -2.30    -4.886653    2             
iter:  10  09:50:07  -5.63  -2.68    -4.886652    2             
iter:  11  09:50:09  -6.55  -2.94    -4.886653    2             
iter:  12  09:50:12  -6.67  -2.95    -4.886654    1             
iter:  13  09:50:15  -6.55  -3.30    -4.886656    2             
iter:  14  09:50:17  -7.01  -3.26    -4.886655    1             
iter:  15  09:50:20  -7.91  -3.86    -4.886655    1             
iter:  16  09:50:23  -8.45  -3.90    -4.886655    1             
iter:  17  09:50:25  -8.32  -4.01    -4.886655    1             

Converged after 17 iterations.

Dipole moment: (-0.070701, -0.102076, -0.050790) |e|*Ang

Energy contributions relative to reference atoms: (reference = -26511.662975)

Kinetic:         +8.886527
Potential:       -8.303248
External:        +0.000000
XC:              -5.470584
Entropy (-ST):   -0.000058
Local:           +0.000679
--------------------------
Free energy:     -4.886684
Extrapolated:    -4.886655

Fermi level: -2.24636

 Band  Eigenvalues  Occupancy
    0     -3.93552    2.00000
    1     -2.81424    1.99998
    2     -2.81134    1.99998
    3     -1.71104    0.00004
    4     -1.55478    0.00000
    5     -1.53585    0.00000
    6     -1.22832    0.00000
    7     -0.70002    0.00000
    8     -0.68265    0.00000
    9     -0.31437    0.00000

Gap: 1.100 eV
Transition (v -> c):
  (s=0, k=0, n=2, [0.00, 0.00, 0.00]) -> (s=0, k=0, n=3, [0.00, 0.00, 0.00])

Forces in eV/Ang:
  0 Na   -0.00452    0.00667   -0.00356
  1 Na   -0.00610    0.00267   -0.00296
  2 Na    0.00752   -0.00232    0.00098
  3 Na    0.00334   -0.00279    0.00663
  4 Na   -0.00535    0.00382   -0.00448
  5 Na    0.00527   -0.00792    0.00354

System changes: positions 

Initializing position-dependent things.

Density initialized from wave functions
           .--------------------------------------.  
          /|                                      |  
         / |                                      |  
        /  |                                      |  
       /   |                                      |  
      /    |                                      |  
     /     |                                      |  
    /      |                                      |  
   /       |                                      |  
  /        |                                      |  
 *         |           Na                         |  
 |         |                                      |  
 |         |                Na                    |  
 |         |                                      |  
 |         |            Na                        |  
 |         |                    Na                |  
 |         |                                      |  
 |         |                 Na                   |  
 |         |                                      |  
 |         |             Na                       |  
 |         .--------------------------------------.  
 |        /                                      /   
 |       /                                      /    
 |      /                                      /     
 |     /                                      /      
 |    /                                      /       
 |   /                                      /        
 |  /                                      /         
 | /                                      /          
 |/                                      /           
 *--------------------------------------*            

Positions:
   0 Na    11.540713    4.999108    9.640477    ( 0.0000,  0.0000,  0.0000)
   1 Na     9.115274    7.088906   10.772151    ( 0.0000,  0.0000,  0.0000)
   2 Na     6.588189    9.212335   11.615664    ( 0.0000,  0.0000,  0.0000)
   3 Na     7.601362    8.072815    5.027403    ( 0.0000,  0.0000,  0.0000)
   4 Na     9.639888    6.455151    7.228789    ( 0.0000,  0.0000,  0.0000)
   5 Na     7.108283    8.784362    8.308421    ( 0.0000,  0.0000,  0.0000)

Unit cell:
           periodic     x           y           z      points  spacing
  1. axis:    no    16.000000    0.000000    0.000000    64     0.2500
  2. axis:    no     0.000000   16.000000    0.000000    64     0.2500
  3. axis:    no     0.000000    0.000000   16.000000    64     0.2500

  Lengths:  16.000000  16.000000  16.000000
  Angles:   90.000000  90.000000  90.000000

Effective grid spacing dv^(1/3) = 0.2500

                     log10-error:    total        iterations:
           time      wfs    density  energy       fermi  poisson
iter:   1  09:50:30  +0.50   +inf    -9.882548    30            
iter:   2  09:50:33  -0.36  +0.02    -9.332143    4             
iter:   3  09:50:35  -1.12  +0.01    -8.501041    5             
iter:   4  09:50:38  -0.87  -0.02    -4.959352    20            
iter:   5  09:50:40  -1.94  -0.51    -4.941727    3             
iter:   6  09:50:43  -2.13  -0.52    -4.825429    6             
iter:   7  09:50:46  -2.10  -0.73    -4.919940    7             
iter:   8  09:50:48  -2.98  -0.78    -4.832287    5             
iter:   9  09:50:51  -2.78  -0.89    -4.843505    3             
iter:  10  09:50:54  -3.41  -1.23    -4.849807    4             
iter:  11  09:50:56  -3.94  -1.33    -4.851299    2             
iter:  12  09:50:59  -3.76  -1.46    -4.850922    3             
iter:  13  09:51:02  -4.81  -1.88    -4.850907    1             
iter:  14  09:51:04  -4.57  -1.91    -4.851100    2             
iter:  15  09:51:07  -4.98  -2.16    -4.851180    2             
iter:  16  09:51:10  -6.22  -2.46    -4.851158    1             
iter:  17  09:51:12  -6.71  -2.49    -4.851166    1             
iter:  18  09:51:15  -6.91  -2.53    -4.851170    1             
iter:  19  09:51:18  -6.12  -2.58    -4.851176    2             
iter:  20  09:51:20  -7.06  -2.89    -4.851177    1             
iter:  21  09:51:23  -7.28  -2.92    -4.851178    1             
iter:  22  09:51:26  -7.19  -3.00    -4.851178    1             
iter:  23  09:51:28  -7.56  -3.25    -4.851177    1             
iter:  24  09:51:31  -8.37  -3.38    -4.851177    1             
iter:  25  09:51:34  -8.19  -3.41    -4.851177    1             
iter:  26  09:51:36  -8.38  -3.53    -4.851178    1             
iter:  27  09:51:39  -8.68  -3.61    -4.851178    1             
iter:  28  09:51:42  -9.24  -3.68    -4.851178    1             
iter:  29  09:51:44  -8.85  -3.72    -4.851178    1             
iter:  30  09:51:47  -9.48  -3.83    -4.851178    1             
iter:  31  09:51:50  -8.91  -3.89    -4.851178    1             
iter:  32  09:51:52  -9.69  -4.08    -4.851178    1             

Converged after 32 iterations.

Dipole moment: (0.016485, -0.017164, -0.011015) |e|*Ang

Energy contributions relative to reference atoms: (reference = -26511.662975)

Kinetic:         +8.998040
Potential:       -8.534293
External:        +0.000000
XC:              -5.316101
Entropy (-ST):   -0.000025
Local:           +0.001190
--------------------------
Free energy:     -4.851190
Extrapolated:    -4.851178

Fermi level: -2.27241

 Band  Eigenvalues  Occupancy
    0     -3.83377    2.00000
    1     -2.88671    1.99999
    2     -2.88189    1.99999
    3     -1.68991    0.00002
    4     -1.55517    0.00000
    5     -1.53450    0.00000
    6     -1.29086    0.00000
    7     -0.60714    0.00000
    8     -0.60212    0.00000
    9     -0.54223    0.00000

Gap: 1.192 eV
Transition (v -> c):
  (s=0, k=0, n=2, [0.00, 0.00, 0.00]) -> (s=0, k=0, n=3, [0.00, 0.00, 0.00])
System changes: positions 

Initializing position-dependent things.

Density initialized from wave functions
           .--------------------------------------.  
          /|                                      |  
         / |                                      |  
        /  |                                      |  
       /   |                                      |  
      /    |                                      |  
     /     |                                      |  
    /      |                                      |  
   /       |                                      |  
  /        |                                      |  
 *         |                                      |  
 |         |          Na                          |  
 |         |                                      |  
 |         |       Na      NNa                    |  
 |         |                                      |  
 |         |                                      |  
 |         |                                      |  
 |         |             Na   Na                  |  
 |         |                                      |  
 |         |                                      |  
 |         .--------------------------------------.  
 |        /                                      /   
 |       /                                      /    
 |      /                                      /     
 |     /                                      /      
 |    /                                      /       
 |   /                                      /        
 |  /                                      /         
 | /                                      /          
 |/                                      /           
 *--------------------------------------*            

Positions:
   0 Na     8.266145    9.599333    8.690638    ( 0.0000,  0.0000,  0.0000)
   1 Na     6.390180    8.048616   11.006922    ( 0.0000,  0.0000,  0.0000)
   2 Na     4.942367    9.967777    8.318164    ( 0.0000,  0.0000,  0.0000)
   3 Na     7.190357    9.811521    5.513967    ( 0.0000,  0.0000,  0.0000)
   4 Na    10.029494    7.792607    6.473220    ( 0.0000,  0.0000,  0.0000)
   5 Na     9.499635    6.709652    9.847531    ( 0.0000,  0.0000,  0.0000)

Unit cell:
           periodic     x           y           z      points  spacing
  1. axis:    no    16.000000    0.000000    0.000000    64     0.2500
  2. axis:    no     0.000000   16.000000    0.000000    64     0.2500
  3. axis:    no     0.000000    0.000000   16.000000    64     0.2500

  Lengths:  16.000000  16.000000  16.000000
  Angles:   90.000000  90.000000  90.000000

Effective grid spacing dv^(1/3) = 0.2500

                     log10-error:    total        iterations:
           time      wfs    density  energy       fermi  poisson
iter:   1  09:51:56  +0.32   +inf    -6.848291    24            
iter:   2  09:51:58  -0.56  -0.10    -6.725510    3             
iter:   3  09:52:01  -1.29  -0.13    -5.653500    6             
iter:   4  09:52:04  -1.40  -0.27    -5.093062    10            
iter:   5  09:52:06  -2.41  -0.49    -4.950356    3             
iter:   6  09:52:09  -2.37  -0.58    -4.867744    5             
iter:   7  09:52:12  -2.63  -0.89    -4.897873    4             
iter:   8  09:52:14  -2.79  -0.99    -4.884047    3             
iter:   9  09:52:17  -3.64  -1.38    -4.884584    2             
iter:  10  09:52:20  -3.78  -1.45    -4.886400    3             
iter:  11  09:52:22  -4.26  -1.75    -4.886460    2             
iter:  12  09:52:25  -4.99  -1.91    -4.886380    2             
iter:  13  09:52:28  -5.44  -1.95    -4.886348    2             
iter:  14  09:52:30  -5.11  -2.02    -4.886616    2             
iter:  15  09:52:33  -5.59  -2.17    -4.886619    2             
iter:  16  09:52:35  -5.74  -2.27    -4.886622    1             
iter:  17  09:52:38  -6.41  -2.46    -4.886623    2             
iter:  18  09:52:41  -5.82  -2.53    -4.886653    2             
iter:  19  09:52:43  -6.97  -2.98    -4.886652    1             
iter:  20  09:52:46  -7.64  -3.02    -4.886653    1             
iter:  21  09:52:49  -7.14  -3.06    -4.886654    1             
iter:  22  09:52:51  -7.99  -3.25    -4.886655    1             
iter:  23  09:52:54  -7.33  -3.30    -4.886655    1             
iter:  24  09:52:57  -8.28  -3.63    -4.886655    1             
iter:  25  09:52:59  -8.81  -3.70    -4.886655    1             
iter:  26  09:53:02  -9.08  -3.86    -4.886655    1             
iter:  27  09:53:05  -9.49  -3.92    -4.886655    1             
iter:  28  09:53:07  -9.01  -4.01    -4.886655    1             

Converged after 28 iterations.

Dipole moment: (-0.070647, -0.102135, -0.050711) |e|*Ang

Energy contributions relative to reference atoms: (reference = -26511.662975)

Kinetic:         +8.882359
Potential:       -8.299154
External:        +0.000000
XC:              -5.470070
Entropy (-ST):   -0.000058
Local:           +0.000240
--------------------------
Free energy:     -4.886684
Extrapolated:    -4.886655

Fermi level: -2.24632

 Band  Eigenvalues  Occupancy
    0     -3.93541    2.00000
    1     -2.81418    1.99998
    2     -2.81130    1.99998
    3     -1.71100    0.00004
    4     -1.55474    0.00000
    5     -1.53586    0.00000
    6     -1.22823    0.00000
    7     -0.70000    0.00000
    8     -0.68263    0.00000
    9     -0.32010    0.00000

Gap: 1.100 eV
Transition (v -> c):
  (s=0, k=0, n=2, [0.00, 0.00, 0.00]) -> (s=0, k=0, n=3, [0.00, 0.00, 0.00])
Timing:                                      incl.     excl.
-------------------------------------------------------------------
Density initialized from wave functions:     4.801     4.800   0.4% |
 Symmetrize density:                         0.000     0.000   0.0% |
Forces:                                     15.518    15.518   1.4% ||
Hamiltonian:                                40.902     0.114   0.0% |
 Atomic:                                     5.761     0.019   0.0% |
  XC Correction:                             5.742     5.742   0.5% |
 Calculate atomic Hamiltonians:              3.618     3.618   0.3% |
 Communicate:                                0.000     0.000   0.0% |
 Initialize Hamiltonian:                     0.000     0.000   0.0% |
 Poisson:                                    0.233     0.233   0.0% |
 XC 3D grid:                                31.176    31.176   2.8% ||
LCAO initialization:                         0.090     0.017   0.0% |
 LCAO eigensolver:                           0.012     0.000   0.0% |
  Calculate projections:                     0.000     0.000   0.0% |
  DenseAtomicCorrection:                     0.000     0.000   0.0% |
  Distribute overlap matrix:                 0.000     0.000   0.0% |
  Orbital Layouts:                           0.001     0.001   0.0% |
  Potential matrix:                          0.010     0.010   0.0% |
 LCAO to grid:                               0.038     0.038   0.0% |
 Set positions (LCAO WFS):                   0.023     0.004   0.0% |
  Basic WFS set positions:                   0.000     0.000   0.0% |
  Basis functions set positions:             0.000     0.000   0.0% |
  P tci:                                     0.011     0.011   0.0% |
  ST tci:                                    0.003     0.003   0.0% |
  mktci:                                     0.005     0.005   0.0% |
PWDescriptor:                                0.537     0.537   0.0% |
Redistribute:                                0.012     0.012   0.0% |
SCF-cycle:                                1047.207     0.552   0.0% |
 Davidson:                                  92.477    21.792   1.9% ||
  Apply H:                                  14.455    13.800   1.2% |
   HMM T:                                    0.655     0.655   0.1% |
  Subspace diag:                            17.483     0.053   0.0% |
   calc_h_matrix:                           15.628     1.084   0.1% |
    Apply H:                                14.544    13.848   1.2% |
     HMM T:                                  0.696     0.696   0.1% |
   diagonalize:                              0.089     0.089   0.0% |
   rotate_psi:                               1.714     1.714   0.2% |
  calc. matrices:                           35.540     6.390   0.6% |
   Apply H:                                 29.151    27.804   2.5% ||
    HMM T:                                   1.347     1.347   0.1% |
  diagonalize:                               0.287     0.287   0.0% |
  rotate_psi:                                2.920     2.920   0.3% |
 Density:                                  109.156     0.009   0.0% |
  Atomic density matrices:                   0.327     0.327   0.0% |
  Mix:                                      97.149    97.149   8.6% |--|
  Multipole moments:                         0.086     0.086   0.0% |
  Pseudo density:                           11.585    11.575   1.0% |
   Symmetrize density:                       0.010     0.010   0.0% |
 Hamiltonian:                              844.743     2.368   0.2% |
  Atomic:                                  119.072     0.387   0.0% |
   XC Correction:                          118.685   118.685  10.5% |---|
  Calculate atomic Hamiltonians:            74.495    74.495   6.6% |--|
  Communicate:                               0.005     0.005   0.0% |
  Poisson:                                   4.689     4.689   0.4% |
  XC 3D grid:                              644.114   644.114  57.2% |----------------------|
 Orthonormalize:                             0.280     0.003   0.0% |
  calc_s_matrix:                             0.032     0.032   0.0% |
  inverse-cholesky:                          0.006     0.006   0.0% |
  projections:                               0.191     0.191   0.0% |
  rotate_psi_s:                              0.048     0.048   0.0% |
Set symmetry:                                0.001     0.001   0.0% |
Other:                                      17.814    17.814   1.6% ||
-------------------------------------------------------------------
Total:                                              1126.883 100.0%

Memory usage: 553.07 MiB
Date: Thu Feb 13 09:53:07 2020
