
  ___ ___ ___ _ _ _  
 |   |   |_  | | | | 
 | | | | | . | | | | 
 |__ |  _|___|_____|  19.8.1
 |___|_|             

User:   ericlin@hebbe12-5
Date:   Thu Feb 13 11:12:15 2020
Arch:   x86_64
Pid:    21686
Python: 3.7.2
gpaw:   /apps/Hebbe7/software/MPI/GCC/8.2.0-2.31.1/OpenMPI/3.1.3/GPAW/19.8.1-Python-3.7.2-libvdwxc/lib/python3.7/site-packages/gpaw
_gpaw:  /apps/Hebbe7/software/MPI/GCC/8.2.0-2.31.1/OpenMPI/3.1.3/GPAW/19.8.1-Python-3.7.2-libvdwxc/bin/
        gpaw-python
ase:    /apps/Hebbe7/software/MPI/GCC/8.2.0-2.31.1/OpenMPI/3.1.3/ASE/3.18.0-Python-3.7.2/lib/python3.7/site-packages/ase (version 3.18.0)
numpy:  /apps/Hebbe7/software/MPI/GCC/8.2.0-2.31.1/OpenMPI/3.1.3/SciPy-bundle/2019.03/lib/python3.7/site-packages/numpy (version 1.16.2)
scipy:  /apps/Hebbe7/software/MPI/GCC/8.2.0-2.31.1/OpenMPI/3.1.3/SciPy-bundle/2019.03/lib/python3.7/site-packages/scipy (version 1.2.1)
libxc:  4.3.4
units:  Angstrom and eV
cores:  1

Input parameters:
  h: 0.25
  mode: {ecut: 500.0,
         gammacentered: False,
         name: pw}
  nbands: 15
  occupations: {name: fermi-dirac,
                width: 0.05}
  setups: {Na: 1}
  xc: PBE

System changes: positions, numbers, cell, pbc, initial_charges, initial_magmoms 

Initialize ...

Na-setup:
  name: Sodium
  id: 8dbce52902f3add137ce7d12431c9cac
  Z: 11
  valence: 1
  core: 10
  charge: 0.0
  file: /apps/Common/Core/GPAW-setups/0.9.20000/Na.1.PBE.gz
  compensation charges: gauss, rc=0.43, lmax=2
  cutoffs: 2.36(filt), 3.60(core),
  valence states:
                energy  radius
    3s(1.00)    -2.744   1.349
    3p(0.00)    -0.743   1.349
    *s          24.468   1.349

  Using partial waves for Na as LCAO basis

Reference energy: -26511.662975

Spin-paired calculation

Occupation numbers:
  Fermi-Dirac: width=0.0500 eV

Convergence criteria:
  Maximum total energy change: 0.0005 eV / electron
  Maximum integral of absolute density change: 0.0001 electrons
  Maximum integral of absolute eigenstate change: 4e-08 eV^2
  Maximum number of iterations: 333

Symmetries present (total): 1

  ( 1  0  0)
  ( 0  1  0)
  ( 0  0  1)

1 k-point (Gamma)
1 k-point in the irreducible part of the Brillouin zone
       k-points in crystal coordinates                weights
   0:     0.00000000    0.00000000    0.00000000          1/1

Wave functions: Plane wave expansion
  Cutoff energy: 500.000 eV
  Number of coefficients: 103959 (reduced to 51980)
  Pulay-stress correction: 0.000000 eV/Ang^3 (de/decut=0.000000)
  Using FFTW library
  ScaLapack parameters: grid=1x1, blocksize=None
  Wavefunction extrapolation:
    Improved wavefunction reuse through dual PAW basis 

Eigensolver
   Davidson(niter=2, smin=None, normalize=True) 

Densities:
  Coarse grid: 64*64*64 grid
  Fine grid: 128*128*128 grid
  Total Charge: 0.000000 

Density mixing:
  Method: separate
  Backend: pulay
  Linear mixing parameter: 0.05
  Mixing with 5 old densities
  Damping of long wave oscillations: 50 

Hamiltonian:
  XC and Coulomb potentials evaluated on a 128*128*128 grid
  Using the PBE Exchange-Correlation functional
 

XC parameters: PBE with 2 nearest neighbor stencil

Memory estimate:
  Process memory now: 1039.46 MiB
  Calculator: 194.79 MiB
    Density: 123.30 MiB
      Arrays: 52.00 MiB
      Localized functions: 51.30 MiB
      Mixer: 20.00 MiB
    Hamiltonian: 35.05 MiB
      Arrays: 34.00 MiB
      XC: 0.00 MiB
      Poisson: 0.00 MiB
      vbar: 1.05 MiB
    Wavefunctions: 36.44 MiB
      Arrays psit_nG: 11.90 MiB
      Eigensolver: 15.88 MiB
      Projections: 0.00 MiB
      Projectors: 2.78 MiB
      PW-descriptor: 5.89 MiB

Total number of cores used: 1

Number of atoms: 6
Number of atomic orbitals: 24
Number of bands in calculation: 15
Bands to converge: occupied states only
Number of valence electrons: 6

... initialized

Initializing position-dependent things.

Density initialized from atomic densities
Creating initial wave functions:
  15 bands from LCAO basis set

           .--------------------------------------.  
          /|                                      |  
         / |                                      |  
        /  |                                      |  
       /   |                                      |  
      /    |                                      |  
     /     |                                      |  
    /      |                                      |  
   /       |                                      |  
  /        |                                      |  
 *         |           Na                         |  
 |         |                                      |  
 |         |                Na                    |  
 |         |                                      |  
 |         |            Na                        |  
 |         |                    Na                |  
 |         |                                      |  
 |         |                Na                    |  
 |         |                                      |  
 |         |             Na                       |  
 |         .--------------------------------------.  
 |        /                                      /   
 |       /                                      /    
 |      /                                      /     
 |     /                                      /      
 |    /                                      /       
 |   /                                      /        
 |  /                                      /         
 | /                                      /          
 |/                                      /           
 *--------------------------------------*            

Positions:
   0 Na    11.424955    5.046215    9.661160    ( 0.0000,  0.0000,  0.0000)
   1 Na     9.091214    7.135542   10.719357    ( 0.0000,  0.0000,  0.0000)
   2 Na     6.710298    9.263471   11.516303    ( 0.0000,  0.0000,  0.0000)
   3 Na     7.680133    8.011559    5.125248    ( 0.0000,  0.0000,  0.0000)
   4 Na     9.624253    6.463545    7.292195    ( 0.0000,  0.0000,  0.0000)
   5 Na     7.055205    8.690646    8.283979    ( 0.0000,  0.0000,  0.0000)

Unit cell:
           periodic     x           y           z      points  spacing
  1. axis:    no    16.000000    0.000000    0.000000    64     0.2500
  2. axis:    no     0.000000   16.000000    0.000000    64     0.2500
  3. axis:    no     0.000000    0.000000   16.000000    64     0.2500

  Lengths:  16.000000  16.000000  16.000000
  Angles:   90.000000  90.000000  90.000000

Effective grid spacing dv^(1/3) = 0.2500

                     log10-error:    total        iterations:
           time      wfs    density  energy       fermi  poisson
iter:   1  11:12:20  +0.42   +inf    -4.911935    2             
iter:   2  11:12:23  -1.08  -0.51    -4.922315    2             
iter:   3  11:12:25  -1.73  -0.53    -4.826113    5             
iter:   4  11:12:28  -2.31  -0.77    -4.828610    3             
iter:   5  11:12:31  -2.61  -0.88    -4.830980    3             
iter:   6  11:12:34  -3.18  -1.42    -4.832222    3             
iter:   7  11:12:37  -3.77  -1.63    -4.831853    2             
iter:   8  11:12:39  -4.01  -1.73    -4.831430    3             
iter:   9  11:12:42  -4.72  -2.34    -4.831346    2             
iter:  10  11:12:45  -5.15  -2.42    -4.831375    2             
iter:  11  11:12:48  -5.68  -2.70    -4.831376    1             
iter:  12  11:12:50  -5.91  -2.73    -4.831378    2             
iter:  13  11:12:53  -6.67  -2.92    -4.831377    1             
iter:  14  11:12:56  -7.06  -2.96    -4.831377    1             
iter:  15  11:12:59  -7.52  -3.10    -4.831377    1             
iter:  16  11:13:01  -7.19  -3.17    -4.831376    1             
iter:  17  11:13:04  -8.05  -3.59    -4.831376    1             
iter:  18  11:13:07  -8.94  -3.97    -4.831376    1             
iter:  19  11:13:10  -9.08  -3.99    -4.831376    1             
iter:  20  11:13:13  -9.11  -4.19    -4.831376    1             

Converged after 20 iterations.

Dipole moment: (0.018486, -0.008605, -0.012070) |e|*Ang

Energy contributions relative to reference atoms: (reference = -26511.662975)

Kinetic:        +11.684606
Potential:      -10.663030
External:        +0.000000
XC:              -5.854316
Entropy (-ST):   -0.000017
Local:           +0.001372
--------------------------
Free energy:     -4.831385
Extrapolated:    -4.831376

Fermi level: -2.26753

 Band  Eigenvalues  Occupancy
    0     -3.89865    2.00000
    1     -2.90223    1.99999
    2     -2.89968    1.99999
    3     -1.66270    0.00001
    4     -1.53528    0.00000
    5     -1.51271    0.00000
    6     -1.33008    0.00000
    7     -0.60554    0.00000
    8     -0.57054    0.00000
    9     -0.54745    0.00000
   10     -0.48945    0.00000
   11     -0.39556    0.00000
   12     -0.18654    0.00000
   13     -0.07025    0.00000
   14      0.28965    0.00000

Gap: 1.237 eV
Transition (v -> c):
  (s=0, k=0, n=2, [0.00, 0.00, 0.00]) -> (s=0, k=0, n=3, [0.00, 0.00, 0.00])
System changes: positions 

Initializing position-dependent things.

Density initialized from wave functions
           .--------------------------------------.  
          /|                                      |  
         / |                                      |  
        /  |                                      |  
       /   |                                      |  
      /    |                                      |  
     /     |                                      |  
    /      |                                      |  
   /       |                                      |  
  /        |                                      |  
 *         |                                      |  
 |         |          Na                          |  
 |         |                                      |  
 |         |       Na      Na                     |  
 |         |                Na                    |  
 |         |                                      |  
 |         |                                      |  
 |         |             Na   Na                  |  
 |         |                                      |  
 |         |                                      |  
 |         .--------------------------------------.  
 |        /                                      /   
 |       /                                      /    
 |      /                                      /     
 |     /                                      /      
 |    /                                      /       
 |   /                                      /        
 |  /                                      /         
 | /                                      /          
 |/                                      /           
 *--------------------------------------*            

Positions:
   0 Na     8.210231    9.489933    8.656516    ( 0.0000,  0.0000,  0.0000)
   1 Na     6.417931    8.101846   10.968460    ( 0.0000,  0.0000,  0.0000)
   2 Na     5.009862    9.947279    8.321395    ( 0.0000,  0.0000,  0.0000)
   3 Na     7.211492    9.790525    5.577356    ( 0.0000,  0.0000,  0.0000)
   4 Na     9.992557    7.848605    6.505352    ( 0.0000,  0.0000,  0.0000)
   5 Na     9.477264    6.754058    9.822530    ( 0.0000,  0.0000,  0.0000)

Unit cell:
           periodic     x           y           z      points  spacing
  1. axis:    no    16.000000    0.000000    0.000000    64     0.2500
  2. axis:    no     0.000000   16.000000    0.000000    64     0.2500
  3. axis:    no     0.000000    0.000000   16.000000    64     0.2500

  Lengths:  16.000000  16.000000  16.000000
  Angles:   90.000000  90.000000  90.000000

Effective grid spacing dv^(1/3) = 0.2500

                     log10-error:    total        iterations:
           time      wfs    density  energy       fermi  poisson
iter:   1  11:13:16  +0.37   +inf    -7.301613    25            
iter:   2  11:13:19  -0.59  -0.07    -6.936414    4             
iter:   3  11:13:22  -1.15  -0.10    -5.050252    28            
iter:   4  11:13:24  -1.89  -0.45    -5.009947    4             
iter:   5  11:13:27  -2.10  -0.49    -4.848825    6             
iter:   6  11:13:30  -2.60  -0.86    -4.882222    4             
iter:   7  11:13:33  -2.78  -0.91    -4.856277    4             
iter:   8  11:13:35  -3.50  -1.27    -4.859480    2             
iter:   9  11:13:38  -3.75  -1.36    -4.862317    3             
iter:  10  11:13:41  -4.19  -1.64    -4.862351    2             
iter:  11  11:13:44  -4.85  -1.82    -4.862399    2             
iter:  12  11:13:46  -5.05  -1.87    -4.862466    2             
iter:  13  11:13:49  -5.21  -2.02    -4.862713    1             
iter:  14  11:13:52  -5.83  -2.14    -4.862713    2             
iter:  15  11:13:55  -5.89  -2.23    -4.862680    2             
iter:  16  11:13:57  -6.55  -2.42    -4.862683    1             
iter:  17  11:14:00  -5.86  -2.48    -4.862709    1             
iter:  18  11:14:03  -6.93  -2.87    -4.862709    1             
iter:  19  11:14:06  -7.45  -2.91    -4.862709    1             
iter:  20  11:14:08  -7.61  -2.99    -4.862709    1             
iter:  21  11:14:11  -7.08  -3.05    -4.862713    1             
iter:  22  11:14:14  -8.31  -3.26    -4.862712    1             
iter:  23  11:14:17  -8.06  -3.30    -4.862713    1             
iter:  24  11:14:20  -8.00  -3.38    -4.862714    1             
iter:  25  11:14:22  -8.11  -3.52    -4.862714    1             
iter:  26  11:14:25  -8.97  -3.68    -4.862714    1             
iter:  27  11:14:28  -8.39  -3.72    -4.862714    1             
iter:  28  11:14:31  -9.32  -3.95    -4.862714    1             
iter:  29  11:14:33  -9.03  -4.00    -4.862714    1             
iter:  30  11:14:36  -9.49  -4.13    -4.862714    1             

Converged after 30 iterations.

Dipole moment: (-0.071584, -0.113082, -0.048651) |e|*Ang

Energy contributions relative to reference atoms: (reference = -26511.662975)

Kinetic:        +11.803295
Potential:      -10.596682
External:        +0.000000
XC:              -6.069526
Entropy (-ST):   -0.000037
Local:           +0.000218
--------------------------
Free energy:     -4.862732
Extrapolated:    -4.862714

Fermi level: -2.24080

 Band  Eigenvalues  Occupancy
    0     -4.00175    2.00000
    1     -2.83674    1.99999
    2     -2.82886    1.99998
    3     -1.67908    0.00003
    4     -1.53144    0.00000
    5     -1.52088    0.00000
    6     -1.25661    0.00000
    7     -0.67313    0.00000
    8     -0.65933    0.00000
    9     -0.30258    0.00000
   10     -0.27195    0.00000
   11     -0.22929    0.00000
   12     -0.19838    0.00000
   13     -0.08434    0.00000
   14      0.26162    0.00000

Gap: 1.150 eV
Transition (v -> c):
  (s=0, k=0, n=2, [0.00, 0.00, 0.00]) -> (s=0, k=0, n=3, [0.00, 0.00, 0.00])
System changes: positions 

Initializing position-dependent things.

Density initialized from wave functions
           .--------------------------------------.  
          /|                                      |  
         / |                                      |  
        /  |                                      |  
       /   |                                      |  
      /    |                                      |  
     /     |                                      |  
    /      |                                      |  
   /       |                                      |  
  /        |                                      |  
 *         |           Na                         |  
 |         |                                      |  
 |         |                Na                    |  
 |         |                                      |  
 |         |            Na                        |  
 |         |                    Na                |  
 |         |                                      |  
 |         |                Na                    |  
 |         |                                      |  
 |         |             Na                       |  
 |         .--------------------------------------.  
 |        /                                      /   
 |       /                                      /    
 |      /                                      /     
 |     /                                      /      
 |    /                                      /       
 |   /                                      /        
 |  /                                      /         
 | /                                      /          
 |/                                      /           
 *--------------------------------------*            

Positions:
   0 Na    11.424955    5.046215    9.661160    ( 0.0000,  0.0000,  0.0000)
   1 Na     9.091214    7.135542   10.719357    ( 0.0000,  0.0000,  0.0000)
   2 Na     6.710298    9.263471   11.516303    ( 0.0000,  0.0000,  0.0000)
   3 Na     7.680133    8.011559    5.125248    ( 0.0000,  0.0000,  0.0000)
   4 Na     9.624253    6.463545    7.292195    ( 0.0000,  0.0000,  0.0000)
   5 Na     7.055205    8.690646    8.283979    ( 0.0000,  0.0000,  0.0000)

Unit cell:
           periodic     x           y           z      points  spacing
  1. axis:    no    16.000000    0.000000    0.000000    64     0.2500
  2. axis:    no     0.000000   16.000000    0.000000    64     0.2500
  3. axis:    no     0.000000    0.000000   16.000000    64     0.2500

  Lengths:  16.000000  16.000000  16.000000
  Angles:   90.000000  90.000000  90.000000

Effective grid spacing dv^(1/3) = 0.2500

                     log10-error:    total        iterations:
           time      wfs    density  energy       fermi  poisson
iter:   1  11:14:40  +0.55   +inf   -11.079850    22            
iter:   2  11:14:42  -0.35  +0.06   -10.202883    5             
iter:   3  11:14:45  -1.05  +0.04    -7.143216    8             
iter:   4  11:14:48  -1.41  -0.10    -5.061281    27            
iter:   5  11:14:51  -2.23  -0.44    -4.976664    3             
iter:   6  11:14:53  -1.90  -0.49    -4.864325    10            
iter:   7  11:14:56  -2.89  -0.78    -4.862980    2             
iter:   8  11:14:59  -2.69  -0.84    -4.823262    4             
iter:   9  11:15:02  -3.59  -1.18    -4.828395    3             
iter:  10  11:15:04  -3.52  -1.29    -4.831645    2             
iter:  11  11:15:07  -4.11  -1.62    -4.831189    2             
iter:  12  11:15:10  -5.03  -1.84    -4.831209    1             
iter:  13  11:15:13  -5.34  -1.88    -4.831268    1             
iter:  14  11:15:16  -5.55  -2.00    -4.831239    2             
iter:  15  11:15:18  -5.80  -2.10    -4.831166    2             
iter:  16  11:15:21  -5.90  -2.19    -4.831220    2             
iter:  17  11:15:24  -6.18  -2.26    -4.831272    2             
iter:  18  11:15:27  -5.25  -2.33    -4.831380    2             
iter:  19  11:15:29  -6.48  -2.92    -4.831379    1             
iter:  20  11:15:32  -6.92  -2.97    -4.831376    1             
iter:  21  11:15:35  -7.79  -3.12    -4.831376    1             
iter:  22  11:15:38  -7.36  -3.14    -4.831376    1             
iter:  23  11:15:40  -7.82  -3.36    -4.831376    1             
iter:  24  11:15:43  -8.31  -3.48    -4.831376    1             
iter:  25  11:15:46  -8.83  -3.52    -4.831376    1             
iter:  26  11:15:49  -8.16  -3.57    -4.831376    1             
iter:  27  11:15:52  -9.15  -3.81    -4.831376    1             
iter:  28  11:15:54  -9.34  -3.88    -4.831376    1             
iter:  29  11:15:57  -8.96  -3.93    -4.831376    1             
iter:  30  11:16:00  -9.16  -4.04    -4.831376    1             

Converged after 30 iterations.

Dipole moment: (0.018476, -0.008546, -0.012075) |e|*Ang

Energy contributions relative to reference atoms: (reference = -26511.662975)

Kinetic:        +11.683570
Potential:      -10.662466
External:        +0.000000
XC:              -5.854218
Entropy (-ST):   -0.000017
Local:           +0.001747
--------------------------
Free energy:     -4.831384
Extrapolated:    -4.831376

Fermi level: -2.26756

 Band  Eigenvalues  Occupancy
    0     -3.89867    2.00000
    1     -2.90226    1.99999
    2     -2.89970    1.99999
    3     -1.66273    0.00001
    4     -1.53529    0.00000
    5     -1.51272    0.00000
    6     -1.33010    0.00000
    7     -0.60556    0.00000
    8     -0.57056    0.00000
    9     -0.54748    0.00000
   10     -0.48947    0.00000
   11     -0.39560    0.00000
   12     -0.18653    0.00000
   13     -0.07027    0.00000
   14      0.28968    0.00000

Gap: 1.237 eV
Transition (v -> c):
  (s=0, k=0, n=2, [0.00, 0.00, 0.00]) -> (s=0, k=0, n=3, [0.00, 0.00, 0.00])

Forces in eV/Ang:
  0 Na    0.07639   -0.06446    0.02760
  1 Na    0.01703   -0.01219    0.03945
  2 Na   -0.05643    0.05432    0.07564
  3 Na   -0.02596    0.01551   -0.10371
  4 Na    0.02025   -0.01976   -0.03174
  5 Na   -0.03123    0.02670   -0.00722

System changes: positions 

Initializing position-dependent things.

Density initialized from wave functions
           .--------------------------------------.  
          /|                                      |  
         / |                                      |  
        /  |                                      |  
       /   |                                      |  
      /    |                                      |  
     /     |                                      |  
    /      |                                      |  
   /       |                                      |  
  /        |                                      |  
 *         |           Na                         |  
 |         |                                      |  
 |         |                Na                    |  
 |         |                                      |  
 |         |            Na                        |  
 |         |                    Na                |  
 |         |                                      |  
 |         |                 Na                   |  
 |         |                                      |  
 |         |             Na                       |  
 |         .--------------------------------------.  
 |        /                                      /   
 |       /                                      /    
 |      /                                      /     
 |     /                                      /      
 |    /                                      /       
 |   /                                      /        
 |  /                                      /         
 | /                                      /          
 |/                                      /           
 *--------------------------------------*            

Positions:
   0 Na    11.578099    4.917000    9.716493    ( 0.0000,  0.0000,  0.0000)
   1 Na     9.125350    7.111110   10.798435    ( 0.0000,  0.0000,  0.0000)
   2 Na     6.597173    9.372360   11.667923    ( 0.0000,  0.0000,  0.0000)
   3 Na     7.628099    8.042654    4.917355    ( 0.0000,  0.0000,  0.0000)
   4 Na     9.664844    6.423937    7.228578    ( 0.0000,  0.0000,  0.0000)
   5 Na     6.992591    8.744178    8.269498    ( 0.0000,  0.0000,  0.0000)

Unit cell:
           periodic     x           y           z      points  spacing
  1. axis:    no    16.000000    0.000000    0.000000    64     0.2500
  2. axis:    no     0.000000   16.000000    0.000000    64     0.2500
  3. axis:    no     0.000000    0.000000   16.000000    64     0.2500

  Lengths:  16.000000  16.000000  16.000000
  Angles:   90.000000  90.000000  90.000000

Effective grid spacing dv^(1/3) = 0.2500

                     log10-error:    total        iterations:
           time      wfs    density  energy       fermi  poisson
iter:   1  11:16:04  -0.74   +inf    -5.029866    5             
iter:   2  11:16:07  -1.88  -0.65    -4.983301    3             
iter:   3  11:16:10  -2.28  -0.71    -4.840234    5             
iter:   4  11:16:13  -3.35  -1.41    -4.839127    3             
iter:   5  11:16:15  -3.77  -1.50    -4.838411    3             
iter:   6  11:16:18  -3.78  -1.67    -4.837558    2             
iter:   7  11:16:21  -4.60  -2.09    -4.837539    1             
iter:   8  11:16:24  -4.98  -2.23    -4.837617    2             
iter:   9  11:16:26  -5.45  -2.38    -4.837630    2             
iter:  10  11:16:29  -5.85  -2.61    -4.837635    2             
iter:  11  11:16:32  -6.57  -3.06    -4.837635    1             
iter:  12  11:16:35  -6.78  -3.10    -4.837635    1             
iter:  13  11:16:38  -7.72  -3.46    -4.837635    1             
iter:  14  11:16:40  -7.72  -3.52    -4.837634    1             
iter:  15  11:16:43  -8.19  -3.60    -4.837634    1             
iter:  16  11:16:46  -8.82  -3.85    -4.837634    1             
iter:  17  11:16:49  -8.35  -3.90    -4.837634    1             
iter:  18  11:16:51  -9.20  -4.40    -4.837634    1             

Converged after 18 iterations.

Dipole moment: (0.028854, -0.016774, -0.015733) |e|*Ang

Energy contributions relative to reference atoms: (reference = -26511.662975)

Kinetic:         +6.907549
Potential:       -6.868280
External:        +0.000000
XC:              -4.877490
Entropy (-ST):   -0.000036
Local:           +0.000605
--------------------------
Free energy:     -4.837652
Extrapolated:    -4.837634

Fermi level: -2.27731

 Band  Eigenvalues  Occupancy
    0     -3.78094    2.00000
    1     -2.87535    1.99999
    2     -2.86599    1.99998
    3     -1.71402    0.00003
    4     -1.57390    0.00000
    5     -1.55318    0.00000
    6     -1.26108    0.00000
    7     -0.63468    0.00000
    8     -0.60942    0.00000
    9     -0.54975    0.00000
   10     -0.53879    0.00000
   11     -0.45111    0.00000
   12     -0.25463    0.00000
   13     -0.08713    0.00000
   14      0.25457    0.00000

Gap: 1.152 eV
Transition (v -> c):
  (s=0, k=0, n=2, [0.00, 0.00, 0.00]) -> (s=0, k=0, n=3, [0.00, 0.00, 0.00])

Forces in eV/Ang:
  0 Na   -0.04842    0.04082   -0.01826
  1 Na   -0.02149    0.01643   -0.03554
  2 Na    0.04030   -0.04028   -0.05617
  3 Na    0.01730   -0.01286    0.07482
  4 Na   -0.02348    0.02080    0.02692
  5 Na    0.03581   -0.02493    0.00826

System changes: positions 

Initializing position-dependent things.

Density initialized from wave functions
           .--------------------------------------.  
          /|                                      |  
         / |                                      |  
        /  |                                      |  
       /   |                                      |  
      /    |                                      |  
     /     |                                      |  
    /      |                                      |  
   /       |                                      |  
  /        |                                      |  
 *         |           Na                         |  
 |         |                                      |  
 |         |                Na                    |  
 |         |                                      |  
 |         |            Na                        |  
 |         |                    Na                |  
 |         |                                      |  
 |         |                Na                    |  
 |         |                                      |  
 |         |             Na                       |  
 |         .--------------------------------------.  
 |        /                                      /   
 |       /                                      /    
 |      /                                      /     
 |     /                                      /      
 |    /                                      /       
 |   /                                      /        
 |  /                                      /         
 | /                                      /          
 |/                                      /           
 *--------------------------------------*            

Positions:
   0 Na    11.539651    4.949272    9.699594    ( 0.0000,  0.0000,  0.0000)
   1 Na     9.074645    7.151533   10.737098    ( 0.0000,  0.0000,  0.0000)
   2 Na     6.643426    9.321999   11.597450    ( 0.0000,  0.0000,  0.0000)
   3 Na     7.644491    8.022923    5.005319    ( 0.0000,  0.0000,  0.0000)
   4 Na     9.612736    6.466457    7.271353    ( 0.0000,  0.0000,  0.0000)
   5 Na     7.071359    8.699238    8.287619    ( 0.0000,  0.0000,  0.0000)

Unit cell:
           periodic     x           y           z      points  spacing
  1. axis:    no    16.000000    0.000000    0.000000    64     0.2500
  2. axis:    no     0.000000   16.000000    0.000000    64     0.2500
  3. axis:    no     0.000000    0.000000   16.000000    64     0.2500

  Lengths:  16.000000  16.000000  16.000000
  Angles:   90.000000  90.000000  90.000000

Effective grid spacing dv^(1/3) = 0.2500

                     log10-error:    total        iterations:
           time      wfs    density  energy       fermi  poisson
iter:   1  11:16:56  -1.35   +inf    -4.901395    3             
iter:   2  11:16:58  -2.53  -0.94    -4.887605    2             
iter:   3  11:17:01  -2.82  -1.00    -4.848504    4             
iter:   4  11:17:04  -3.75  -1.64    -4.848408    2             
iter:   5  11:17:07  -4.32  -1.69    -4.847997    2             
iter:   6  11:17:10  -4.48  -1.96    -4.847867    1             
iter:   7  11:17:12  -5.02  -2.12    -4.847831    2             
iter:   8  11:17:15  -5.42  -2.36    -4.847846    2             
iter:   9  11:17:18  -5.63  -2.53    -4.847853    2             
iter:  10  11:17:21  -6.21  -2.97    -4.847855    1             
iter:  11  11:17:23  -6.97  -3.11    -4.847854    1             
iter:  12  11:17:26  -7.42  -3.14    -4.847854    1             
iter:  13  11:17:29  -7.36  -3.24    -4.847855    1             
iter:  14  11:17:32  -7.79  -3.40    -4.847855    1             
iter:  15  11:17:34  -8.04  -3.47    -4.847855    1             
iter:  16  11:17:37  -8.55  -3.67    -4.847855    1             
iter:  17  11:17:40  -8.75  -3.78    -4.847855    1             
iter:  18  11:17:43  -8.50  -3.87    -4.847855    1             
iter:  19  11:17:46  -9.11  -4.12    -4.847855    1             

Converged after 19 iterations.

Dipole moment: (0.005746, 0.001405, -0.015914) |e|*Ang

Energy contributions relative to reference atoms: (reference = -26511.662975)

Kinetic:         +9.172802
Potential:       -8.656740
External:        +0.000000
XC:              -5.364939
Entropy (-ST):   -0.000033
Local:           +0.001039
--------------------------
Free energy:     -4.847871
Extrapolated:    -4.847855

Fermi level: -2.27813

 Band  Eigenvalues  Occupancy
    0     -3.84723    2.00000
    1     -2.89068    1.99999
    2     -2.86467    1.99998
    3     -1.71244    0.00002
    4     -1.54382    0.00000
    5     -1.50593    0.00000
    6     -1.29711    0.00000
    7     -0.61157    0.00000
    8     -0.59748    0.00000
    9     -0.54446    0.00000
   10     -0.52854    0.00000
   11     -0.41745    0.00000
   12     -0.21475    0.00000
   13     -0.08261    0.00000
   14      0.26593    0.00000

Gap: 1.152 eV
Transition (v -> c):
  (s=0, k=0, n=2, [0.00, 0.00, 0.00]) -> (s=0, k=0, n=3, [0.00, 0.00, 0.00])

Forces in eV/Ang:
  0 Na   -0.03918    0.03319   -0.00910
  1 Na    0.04835   -0.04053    0.01586
  2 Na   -0.01197    0.01058    0.00400
  3 Na   -0.00644    0.00431   -0.00081
  4 Na    0.03962   -0.03421    0.00720
  5 Na   -0.03057    0.02680   -0.01720

System changes: positions 

Initializing position-dependent things.

Density initialized from wave functions
           .--------------------------------------.  
          /|                                      |  
         / |                                      |  
        /  |                                      |  
       /   |                                      |  
      /    |                                      |  
     /     |                                      |  
    /      |                                      |  
   /       |                                      |  
  /        |                                      |  
 *         |           Na                         |  
 |         |                                      |  
 |         |                Na                    |  
 |         |                                      |  
 |         |            Na                        |  
 |         |                    Na                |  
 |         |                                      |  
 |         |                 Na                   |  
 |         |                                      |  
 |         |             Na                       |  
 |         .--------------------------------------.  
 |        /                                      /   
 |       /                                      /    
 |      /                                      /     
 |     /                                      /      
 |    /                                      /       
 |   /                                      /        
 |  /                                      /         
 | /                                      /          
 |/                                      /           
 *--------------------------------------*            

Positions:
   0 Na    11.483691    4.996437    9.689075    ( 0.0000,  0.0000,  0.0000)
   1 Na     9.142680    7.093602   10.706561    ( 0.0000,  0.0000,  0.0000)
   2 Na     6.583353    9.355370   11.599498    ( 0.0000,  0.0000,  0.0000)
   3 Na     7.595824    8.018716    4.990636    ( 0.0000,  0.0000,  0.0000)
   4 Na     9.650709    6.417819    7.352955    ( 0.0000,  0.0000,  0.0000)
   5 Na     7.129966    8.731127    8.260055    ( 0.0000,  0.0000,  0.0000)

Unit cell:
           periodic     x           y           z      points  spacing
  1. axis:    no    16.000000    0.000000    0.000000    64     0.2500
  2. axis:    no     0.000000   16.000000    0.000000    64     0.2500
  3. axis:    no     0.000000    0.000000   16.000000    64     0.2500

  Lengths:  16.000000  16.000000  16.000000
  Angles:   90.000000  90.000000  90.000000

Effective grid spacing dv^(1/3) = 0.2500

                     log10-error:    total        iterations:
           time      wfs    density  energy       fermi  poisson
iter:   1  11:17:50  -1.42   +inf    -4.922011    2             
iter:   2  11:17:53  -2.75  -0.93    -4.895999    2             
iter:   3  11:17:55  -2.95  -1.00    -4.834748    2             
iter:   4  11:17:58  -3.97  -1.48    -4.834392    1             
iter:   5  11:18:01  -4.01  -1.56    -4.832947    2             
iter:   6  11:18:04  -4.55  -1.93    -4.832816    2             
iter:   7  11:18:06  -4.72  -2.02    -4.832955    1             
iter:   8  11:18:09  -5.29  -2.35    -4.833014    1             
iter:   9  11:18:12  -5.49  -2.56    -4.833019    2             
iter:  10  11:18:15  -6.64  -3.23    -4.833018    1             
iter:  11  11:18:18  -7.11  -3.26    -4.833019    1             
iter:  12  11:18:20  -8.12  -3.46    -4.833019    1             
iter:  13  11:18:23  -8.32  -3.51    -4.833018    1             
iter:  14  11:18:26  -8.63  -3.56    -4.833018    1             
iter:  15  11:18:29  -9.15  -3.67    -4.833018    1             
iter:  16  11:18:31  -8.68  -3.72    -4.833018    1             
iter:  17  11:18:34  -9.60  -3.80    -4.833018    1             
iter:  18  11:18:37  -8.15  -3.84    -4.833018    1             
iter:  19  11:18:40  -9.35  -4.00    -4.833018    1             
iter:  20  11:18:43  -9.95  -4.17    -4.833018    1             

Converged after 20 iterations.

Dipole moment: (0.065021, -0.056999, -0.010461) |e|*Ang

Energy contributions relative to reference atoms: (reference = -26511.662975)

Kinetic:         +9.421316
Potential:       -8.844729
External:        +0.000000
XC:              -5.410291
Entropy (-ST):   -0.000038
Local:           +0.000704
--------------------------
Free energy:     -4.833037
Extrapolated:    -4.833018

Fermi level: -2.27216

 Band  Eigenvalues  Occupancy
    0     -3.85608    2.00000
    1     -2.91563    1.99999
    2     -2.83576    1.99997
    3     -1.71556    0.00003
    4     -1.54404    0.00000
    5     -1.49707    0.00000
    6     -1.30144    0.00000
    7     -0.62303    0.00000
    8     -0.61944    0.00000
    9     -0.53460    0.00000
   10     -0.51713    0.00000
   11     -0.39462    0.00000
   12     -0.20512    0.00000
   13     -0.08319    0.00000
   14      0.27060    0.00000

Gap: 1.120 eV
Transition (v -> c):
  (s=0, k=0, n=2, [0.00, 0.00, 0.00]) -> (s=0, k=0, n=3, [0.00, 0.00, 0.00])

Forces in eV/Ang:
  0 Na    0.07604   -0.06441    0.02718
  1 Na   -0.08739    0.08182    0.09266
  2 Na    0.05196   -0.04401   -0.03676
  3 Na    0.03684   -0.02829    0.03232
  4 Na   -0.04511    0.02878   -0.13824
  5 Na   -0.03255    0.02644    0.02283

System changes: positions 

Initializing position-dependent things.

Density initialized from wave functions
           .--------------------------------------.  
          /|                                      |  
         / |                                      |  
        /  |                                      |  
       /   |                                      |  
      /    |                                      |  
     /     |                                      |  
    /      |                                      |  
   /       |                                      |  
  /        |                                      |  
 *         |           Na                         |  
 |         |                                      |  
 |         |                Na                    |  
 |         |                                      |  
 |         |            Na                        |  
 |         |                    Na                |  
 |         |                                      |  
 |         |                Na                    |  
 |         |                                      |  
 |         |            Na                        |  
 |         .--------------------------------------.  
 |        /                                      /   
 |       /                                      /    
 |      /                                      /     
 |     /                                      /      
 |    /                                      /       
 |   /                                      /        
 |  /                                      /         
 | /                                      /          
 |/                                      /           
 *--------------------------------------*            

Positions:
   0 Na    11.528628    4.957330    9.741472    ( 0.0000,  0.0000,  0.0000)
   1 Na     9.099043    7.154634   10.863759    ( 0.0000,  0.0000,  0.0000)
   2 Na     6.509145    9.341237   11.478709    ( 0.0000,  0.0000,  0.0000)
   3 Na     7.514039    7.901326    5.039752    ( 0.0000,  0.0000,  0.0000)
   4 Na     9.625333    6.337031    7.243042    ( 0.0000,  0.0000,  0.0000)
   5 Na     7.309174    8.929640    8.233547    ( 0.0000,  0.0000,  0.0000)

Unit cell:
           periodic     x           y           z      points  spacing
  1. axis:    no    16.000000    0.000000    0.000000    64     0.2500
  2. axis:    no     0.000000   16.000000    0.000000    64     0.2500
  3. axis:    no     0.000000    0.000000   16.000000    64     0.2500

  Lengths:  16.000000  16.000000  16.000000
  Angles:   90.000000  90.000000  90.000000

Effective grid spacing dv^(1/3) = 0.2500

                     log10-error:    total        iterations:
           time      wfs    density  energy       fermi  poisson
iter:   1  11:18:47  -1.03   +inf    -4.909378    2             
iter:   2  11:18:50  -2.29  -0.89    -4.888949    2             
iter:   3  11:18:53  -2.86  -0.97    -4.841108    2             
iter:   4  11:18:55  -3.75  -1.38    -4.840824    2             
iter:   5  11:18:58  -3.83  -1.46    -4.841002    2             
iter:   6  11:19:01  -4.37  -1.82    -4.841335    2             
iter:   7  11:19:04  -4.45  -1.90    -4.841786    2             
iter:   8  11:19:07  -5.25  -2.23    -4.841820    1             
iter:   9  11:19:09  -5.10  -2.33    -4.841869    2             
iter:  10  11:19:12  -6.13  -2.88    -4.841868    1             
iter:  11  11:19:15  -6.56  -2.95    -4.841870    1             
iter:  12  11:19:18  -7.12  -3.06    -4.841870    1             
iter:  13  11:19:20  -7.53  -3.11    -4.841870    1             
iter:  14  11:19:23  -7.19  -3.21    -4.841868    1             
iter:  15  11:19:26  -7.82  -3.44    -4.841868    1             
iter:  16  11:19:29  -8.79  -3.52    -4.841868    1             
iter:  17  11:19:32  -8.27  -3.56    -4.841868    1             
iter:  18  11:19:34  -8.29  -3.67    -4.841868    1             
iter:  19  11:19:37  -8.80  -3.76    -4.841868    1             
iter:  20  11:19:40  -8.52  -3.82    -4.841868    1             
iter:  21  11:19:43  -9.20  -4.01    -4.841868    1             

Converged after 21 iterations.

Dipole moment: (-0.005336, -0.025671, -0.013415) |e|*Ang

Energy contributions relative to reference atoms: (reference = -26511.662975)

Kinetic:         +8.289921
Potential:       -7.972813
External:        +0.000000
XC:              -5.159701
Entropy (-ST):   -0.000025
Local:           +0.000737
--------------------------
Free energy:     -4.841880
Extrapolated:    -4.841868

Fermi level: -2.26730

 Band  Eigenvalues  Occupancy
    0     -3.81238    2.00000
    1     -2.88056    1.99999
    2     -2.87843    1.99999
    3     -1.68104    0.00002
    4     -1.57563    0.00000
    5     -1.54728    0.00000
    6     -1.27360    0.00000
    7     -0.62641    0.00000
    8     -0.60177    0.00000
    9     -0.57775    0.00000
   10     -0.52770    0.00000
   11     -0.39344    0.00000
   12     -0.22595    0.00000
   13     -0.08441    0.00000
   14      0.27680    0.00000

Gap: 1.197 eV
Transition (v -> c):
  (s=0, k=0, n=2, [0.00, 0.00, 0.00]) -> (s=0, k=0, n=3, [0.00, 0.00, 0.00])

Forces in eV/Ang:
  0 Na   -0.03239    0.02568   -0.00072
  1 Na    0.00146   -0.00459   -0.05120
  2 Na    0.02269   -0.00694    0.01440
  3 Na    0.01951   -0.00913   -0.00684
  4 Na   -0.00917    0.01457    0.03611
  5 Na   -0.00184   -0.01964    0.00828

System changes: positions 

Initializing position-dependent things.

Density initialized from wave functions
           .--------------------------------------.  
          /|                                      |  
         / |                                      |  
        /  |                                      |  
       /   |                                      |  
      /    |                                      |  
     /     |                                      |  
    /      |                                      |  
   /       |                                      |  
  /        |                                      |  
 *         |           Na                         |  
 |         |                                      |  
 |         |                Na                    |  
 |         |                                      |  
 |         |           Na                         |  
 |         |                    Na                |  
 |         |                                      |  
 |         |                 Na                   |  
 |         |                                      |  
 |         |             Na                       |  
 |         .--------------------------------------.  
 |        /                                      /   
 |       /                                      /    
 |      /                                      /     
 |     /                                      /      
 |    /                                      /       
 |   /                                      /        
 |  /                                      /         
 | /                                      /          
 |/                                      /           
 *--------------------------------------*            

Positions:
   0 Na    11.503501    4.981257    9.675241    ( 0.0000,  0.0000,  0.0000)
   1 Na     9.117201    7.113084   10.769480    ( 0.0000,  0.0000,  0.0000)
   2 Na     6.669801    9.316014   11.601473    ( 0.0000,  0.0000,  0.0000)
   3 Na     7.670257    8.057432    5.028556    ( 0.0000,  0.0000,  0.0000)
   4 Na     9.660000    6.450884    7.245622    ( 0.0000,  0.0000,  0.0000)
   5 Na     6.965301    8.690490    8.277457    ( 0.0000,  0.0000,  0.0000)

Unit cell:
           periodic     x           y           z      points  spacing
  1. axis:    no    16.000000    0.000000    0.000000    64     0.2500
  2. axis:    no     0.000000   16.000000    0.000000    64     0.2500
  3. axis:    no     0.000000    0.000000   16.000000    64     0.2500

  Lengths:  16.000000  16.000000  16.000000
  Angles:   90.000000  90.000000  90.000000

Effective grid spacing dv^(1/3) = 0.2500

                     log10-error:    total        iterations:
           time      wfs    density  energy       fermi  poisson
iter:   1  11:19:47  -0.97   +inf    -4.849438    2             
iter:   2  11:19:50  -2.17  -1.17    -4.849868    1             
iter:   3  11:19:53  -2.98  -1.20    -4.846449    1             
iter:   4  11:19:55  -3.80  -1.49    -4.847287    2             
iter:   5  11:19:58  -4.00  -1.56    -4.849381    2             
iter:   6  11:20:01  -4.54  -1.87    -4.850113    2             
iter:   7  11:20:04  -4.52  -1.99    -4.850555    2             
iter:   8  11:20:07  -5.41  -2.43    -4.850583    1             
iter:   9  11:20:09  -5.28  -2.49    -4.850621    2             
iter:  10  11:20:12  -6.84  -3.02    -4.850618    1             
iter:  11  11:20:15  -7.54  -3.11    -4.850618    1             
iter:  12  11:20:18  -7.39  -3.16    -4.850618    1             
iter:  13  11:20:21  -7.65  -3.36    -4.850619    1             
iter:  14  11:20:23  -7.89  -3.44    -4.850619    1             
iter:  15  11:20:26  -8.30  -3.58    -4.850619    1             
iter:  16  11:20:29  -8.07  -3.65    -4.850619    1             
iter:  17  11:20:32  -8.83  -3.92    -4.850619    1             
iter:  18  11:20:34  -8.57  -3.98    -4.850619    1             
iter:  19  11:20:37  -9.26  -4.29    -4.850619    1             

Converged after 19 iterations.

Dipole moment: (0.027405, -0.010436, -0.014206) |e|*Ang

Energy contributions relative to reference atoms: (reference = -26511.662975)

Kinetic:         +9.009725
Potential:       -8.549868
External:        +0.000000
XC:              -5.311469
Entropy (-ST):   -0.000023
Local:           +0.001005
--------------------------
Free energy:     -4.850630
Extrapolated:    -4.850619

Fermi level: -2.26973

 Band  Eigenvalues  Occupancy
    0     -3.83003    2.00000
    1     -2.89122    1.99999
    2     -2.88373    1.99999
    3     -1.67928    0.00001
    4     -1.56347    0.00000
    5     -1.54106    0.00000
    6     -1.28968    0.00000
    7     -0.61075    0.00000
    8     -0.60121    0.00000
    9     -0.54887    0.00000
   10     -0.51446    0.00000
   11     -0.42676    0.00000
   12     -0.22681    0.00000
   13     -0.07751    0.00000
   14      0.27278    0.00000

Gap: 1.204 eV
Transition (v -> c):
  (s=0, k=0, n=2, [0.00, 0.00, 0.00]) -> (s=0, k=0, n=3, [0.00, 0.00, 0.00])

Forces in eV/Ang:
  0 Na    0.01161   -0.00945    0.00296
  1 Na   -0.01227    0.00914   -0.01495
  2 Na   -0.00435    0.00064    0.00159
  3 Na   -0.00491    0.00015   -0.01008
  4 Na   -0.01248    0.00953    0.01092
  5 Na    0.02220   -0.01004    0.00961

System changes: positions 

Initializing position-dependent things.

Density initialized from wave functions
           .--------------------------------------.  
          /|                                      |  
         / |                                      |  
        /  |                                      |  
       /   |                                      |  
      /    |                                      |  
     /     |                                      |  
    /      |                                      |  
   /       |                                      |  
  /        |                                      |  
 *         |           Na                         |  
 |         |                                      |  
 |         |                Na                    |  
 |         |                                      |  
 |         |            Na                        |  
 |         |                    Na                |  
 |         |                                      |  
 |         |                Na                    |  
 |         |                                      |  
 |         |             Na                       |  
 |         .--------------------------------------.  
 |        /                                      /   
 |       /                                      /    
 |      /                                      /     
 |     /                                      /      
 |    /                                      /       
 |   /                                      /        
 |  /                                      /         
 | /                                      /          
 |/                                      /           
 *--------------------------------------*            

Positions:
   0 Na    11.437223    5.023592    9.778087    ( 0.0000,  0.0000,  0.0000)
   1 Na     9.096737    7.150262   10.752860    ( 0.0000,  0.0000,  0.0000)
   2 Na     6.657575    9.309985   11.605004    ( 0.0000,  0.0000,  0.0000)
   3 Na     7.662905    7.841069    4.956642    ( 0.0000,  0.0000,  0.0000)
   4 Na     9.605958    6.390309    7.243454    ( 0.0000,  0.0000,  0.0000)
   5 Na     7.126758    8.905779    8.264122    ( 0.0000,  0.0000,  0.0000)

Unit cell:
           periodic     x           y           z      points  spacing
  1. axis:    no    16.000000    0.000000    0.000000    64     0.2500
  2. axis:    no     0.000000   16.000000    0.000000    64     0.2500
  3. axis:    no     0.000000    0.000000   16.000000    64     0.2500

  Lengths:  16.000000  16.000000  16.000000
  Angles:   90.000000  90.000000  90.000000

Effective grid spacing dv^(1/3) = 0.2500

                     log10-error:    total        iterations:
           time      wfs    density  energy       fermi  poisson
iter:   1  11:20:42  -1.20   +inf    -4.846255    2             
iter:   2  11:20:44  -2.41  -1.23    -4.845888    1             
iter:   3  11:20:47  -3.21  -1.27    -4.841471    1             
iter:   4  11:20:50  -4.14  -1.66    -4.841491    1             
iter:   5  11:20:53  -4.41  -1.71    -4.842102    1             
iter:   6  11:20:56  -4.84  -1.97    -4.842451    1             
iter:   7  11:20:58  -4.80  -2.09    -4.842758    2             
iter:   8  11:21:01  -5.82  -2.56    -4.842771    1             
iter:   9  11:21:04  -5.54  -2.60    -4.842798    1             
iter:  10  11:21:07  -7.20  -3.29    -4.842797    1             
iter:  11  11:21:10  -7.62  -3.41    -4.842797    1             
iter:  12  11:21:12  -8.01  -3.49    -4.842797    1             
iter:  13  11:21:15  -7.93  -3.62    -4.842797    1             
iter:  14  11:21:18  -8.77  -3.93    -4.842797    1             
iter:  15  11:21:21  -9.48  -3.99    -4.842797    1             
iter:  16  11:21:24  -8.99  -4.05    -4.842797    1             

Converged after 16 iterations.

Dipole moment: (-0.010478, -0.001394, -0.013884) |e|*Ang

Energy contributions relative to reference atoms: (reference = -26511.662975)

Kinetic:         +9.040663
Potential:       -8.571238
External:        +0.000000
XC:              -5.313238
Entropy (-ST):   -0.000027
Local:           +0.001029
--------------------------
Free energy:     -4.842811
Extrapolated:    -4.842797

Fermi level: -2.27635

 Band  Eigenvalues  Occupancy
    0     -3.83067    2.00000
    1     -2.89966    1.99999
    2     -2.87462    1.99999
    3     -1.69717    0.00002
    4     -1.55615    0.00000
    5     -1.53190    0.00000
    6     -1.28929    0.00000
    7     -0.61045    0.00000
    8     -0.59114    0.00000
    9     -0.56359    0.00000
   10     -0.50850    0.00000
   11     -0.43868    0.00000
   12     -0.22187    0.00000
   13     -0.07827    0.00000
   14      0.25903    0.00000

Gap: 1.177 eV
Transition (v -> c):
  (s=0, k=0, n=2, [0.00, 0.00, 0.00]) -> (s=0, k=0, n=3, [0.00, 0.00, 0.00])

Forces in eV/Ang:
  0 Na    0.03537   -0.03378   -0.01400
  1 Na   -0.01697    0.01587   -0.00659
  2 Na   -0.01630    0.02179   -0.00524
  3 Na   -0.02518    0.03438    0.03072
  4 Na    0.00581    0.00065    0.03661
  5 Na    0.01706   -0.03911   -0.04137

System changes: positions 

Initializing position-dependent things.

Density initialized from wave functions
           .--------------------------------------.  
          /|                                      |  
         / |                                      |  
        /  |                                      |  
       /   |                                      |  
      /    |                                      |  
     /     |                                      |  
    /      |                                      |  
   /       |                                      |  
  /        |                                      |  
 *         |           Na                         |  
 |         |                                      |  
 |         |                Na                    |  
 |         |                                      |  
 |         |            Na                        |  
 |         |                    Na                |  
 |         |                                      |  
 |         |                Na                    |  
 |         |                                      |  
 |         |             Na                       |  
 |         .--------------------------------------.  
 |        /                                      /   
 |       /                                      /    
 |      /                                      /     
 |     /                                      /      
 |    /                                      /       
 |   /                                      /        
 |  /                                      /         
 | /                                      /          
 |/                                      /           
 *--------------------------------------*            

Positions:
   0 Na    11.487262    4.953869    9.778811    ( 0.0000,  0.0000,  0.0000)
   1 Na     9.043375    7.212054   10.738079    ( 0.0000,  0.0000,  0.0000)
   2 Na     6.670748    9.372202   11.626873    ( 0.0000,  0.0000,  0.0000)
   3 Na     7.639730    7.854771    5.040934    ( 0.0000,  0.0000,  0.0000)
   4 Na     9.634348    6.357249    7.332677    ( 0.0000,  0.0000,  0.0000)
   5 Na     7.111886    8.875299    8.084101    ( 0.0000,  0.0000,  0.0000)

Unit cell:
           periodic     x           y           z      points  spacing
  1. axis:    no    16.000000    0.000000    0.000000    64     0.2500
  2. axis:    no     0.000000   16.000000    0.000000    64     0.2500
  3. axis:    no     0.000000    0.000000   16.000000    64     0.2500

  Lengths:  16.000000  16.000000  16.000000
  Angles:   90.000000  90.000000  90.000000

Effective grid spacing dv^(1/3) = 0.2500

                     log10-error:    total        iterations:
           time      wfs    density  energy       fermi  poisson
iter:   1  11:21:28  -1.40   +inf    -4.864494    2             
iter:   2  11:21:31  -2.69  -1.09    -4.855926    2             
iter:   3  11:21:34  -3.18  -1.15    -4.833175    2             
iter:   4  11:21:36  -4.15  -1.48    -4.833294    1             
iter:   5  11:21:39  -4.07  -1.55    -4.833535    2             
iter:   6  11:21:42  -4.60  -1.89    -4.833698    1             
iter:   7  11:21:45  -4.68  -2.00    -4.834134    2             
iter:   8  11:21:48  -5.52  -2.48    -4.834160    1             
iter:   9  11:21:50  -5.72  -2.57    -4.834170    1             
iter:  10  11:21:53  -6.99  -3.14    -4.834169    1             
iter:  11  11:21:56  -7.34  -3.18    -4.834169    1             
iter:  12  11:21:59  -8.05  -3.31    -4.834169    1             
iter:  13  11:22:02  -7.90  -3.36    -4.834169    1             
iter:  14  11:22:04  -8.55  -3.50    -4.834169    1             
iter:  15  11:22:07  -8.43  -3.56    -4.834169    1             
iter:  16  11:22:10  -8.95  -3.66    -4.834169    1             
iter:  17  11:22:13  -8.74  -3.71    -4.834169    1             
iter:  18  11:22:16  -9.48  -3.85    -4.834169    1             
iter:  19  11:22:18  -8.55  -3.91    -4.834169    1             
iter:  20  11:22:21  -9.53  -4.35    -4.834169    1             

Converged after 20 iterations.

Dipole moment: (0.014589, -0.024454, -0.052370) |e|*Ang

Energy contributions relative to reference atoms: (reference = -26511.662975)

Kinetic:         +8.983168
Potential:       -8.519543
External:        +0.000000
XC:              -5.298718
Entropy (-ST):   -0.000027
Local:           +0.000938
--------------------------
Free energy:     -4.834182
Extrapolated:    -4.834169

Fermi level: -2.27060

 Band  Eigenvalues  Occupancy
    0     -3.83100    2.00000
    1     -2.90669    1.99999
    2     -2.86091    1.99999
    3     -1.69074    0.00002
    4     -1.57909    0.00000
    5     -1.51328    0.00000
    6     -1.28924    0.00000
    7     -0.61213    0.00000
    8     -0.60210    0.00000
    9     -0.56204    0.00000
   10     -0.51245    0.00000
   11     -0.42651    0.00000
   12     -0.22061    0.00000
   13     -0.08071    0.00000
   14      0.27569    0.00000

Gap: 1.170 eV
Transition (v -> c):
  (s=0, k=0, n=2, [0.00, 0.00, 0.00]) -> (s=0, k=0, n=3, [0.00, 0.00, 0.00])

Forces in eV/Ang:
  0 Na   -0.01541    0.01279    0.00488
  1 Na    0.02378   -0.01996   -0.01156
  2 Na   -0.00968    0.01252   -0.07216
  3 Na    0.00307   -0.01252   -0.08580
  4 Na    0.00535   -0.00295    0.00254
  5 Na   -0.00716    0.01017    0.16192

System changes: positions 

Initializing position-dependent things.

Density initialized from wave functions
           .--------------------------------------.  
          /|                                      |  
         / |                                      |  
        /  |                                      |  
       /   |                                      |  
      /    |                                      |  
     /     |                                      |  
    /      |                                      |  
   /       |                                      |  
  /        |                                      |  
 *         |           Na                         |  
 |         |                                      |  
 |         |                Na                    |  
 |         |                                      |  
 |         |            Na                        |  
 |         |                    Na                |  
 |         |                                      |  
 |         |                Na                    |  
 |         |                                      |  
 |         |             Na                       |  
 |         .--------------------------------------.  
 |        /                                      /   
 |       /                                      /    
 |      /                                      /     
 |     /                                      /      
 |    /                                      /       
 |   /                                      /        
 |  /                                      /         
 | /                                      /          
 |/                                      /           
 *--------------------------------------*            

Positions:
   0 Na    11.495321    5.046722    9.667482    ( 0.0000,  0.0000,  0.0000)
   1 Na     9.160309    7.045486   10.813584    ( 0.0000,  0.0000,  0.0000)
   2 Na     6.548643    9.204294   11.681693    ( 0.0000,  0.0000,  0.0000)
   3 Na     7.600749    8.058380    5.035558    ( 0.0000,  0.0000,  0.0000)
   4 Na     9.571670    6.499382    7.133003    ( 0.0000,  0.0000,  0.0000)
   5 Na     7.208156    8.748349    8.265011    ( 0.0000,  0.0000,  0.0000)

Unit cell:
           periodic     x           y           z      points  spacing
  1. axis:    no    16.000000    0.000000    0.000000    64     0.2500
  2. axis:    no     0.000000   16.000000    0.000000    64     0.2500
  3. axis:    no     0.000000    0.000000   16.000000    64     0.2500

  Lengths:  16.000000  16.000000  16.000000
  Angles:   90.000000  90.000000  90.000000

Effective grid spacing dv^(1/3) = 0.2500

                     log10-error:    total        iterations:
           time      wfs    density  energy       fermi  poisson
iter:   1  11:22:26  -0.91   +inf    -4.841192    2             
iter:   2  11:22:28  -2.12  -0.97    -4.839040    2             
iter:   3  11:22:31  -2.81  -1.00    -4.822695    1             
iter:   4  11:22:34  -3.69  -1.38    -4.823094    1             
iter:   5  11:22:37  -4.00  -1.45    -4.824689    2             
iter:   6  11:22:40  -4.42  -1.69    -4.825856    2             
iter:   7  11:22:42  -4.42  -1.84    -4.826806    2             
iter:   8  11:22:45  -5.42  -2.31    -4.826857    1             
iter:   9  11:22:48  -5.23  -2.37    -4.826899    1             
iter:  10  11:22:51  -6.58  -2.91    -4.826899    1             
iter:  11  11:22:54  -7.67  -3.17    -4.826900    1             
iter:  12  11:22:56  -7.42  -3.21    -4.826900    1             
iter:  13  11:22:59  -7.80  -3.43    -4.826901    1             
iter:  14  11:23:02  -8.20  -3.54    -4.826901    1             
iter:  15  11:23:05  -8.65  -3.65    -4.826901    1             
iter:  16  11:23:08  -8.95  -3.75    -4.826901    1             
iter:  17  11:23:10  -9.21  -3.83    -4.826901    1             
iter:  18  11:23:13  -9.27  -3.89    -4.826901    1             
iter:  19  11:23:16  -9.25  -3.94    -4.826901    1             
iter:  20  11:23:19  -9.99  -4.02    -4.826901    1             

Converged after 20 iterations.

Dipole moment: (-0.006465, -0.007187, -0.104206) |e|*Ang

Energy contributions relative to reference atoms: (reference = -26511.662975)

Kinetic:         +9.210299
Potential:       -8.693329
External:        +0.000000
XC:              -5.344884
Entropy (-ST):   -0.000035
Local:           +0.001031
--------------------------
Free energy:     -4.826918
Extrapolated:    -4.826901

Fermi level: -2.26889

 Band  Eigenvalues  Occupancy
    0     -3.84180    2.00000
    1     -2.93516    2.00000
    2     -2.83345    1.99998
    3     -1.70673    0.00003
    4     -1.56293    0.00000
    5     -1.51405    0.00000
    6     -1.29577    0.00000
    7     -0.59625    0.00000
    8     -0.59307    0.00000
    9     -0.57381    0.00000
   10     -0.53459    0.00000
   11     -0.41616    0.00000
   12     -0.21556    0.00000
   13     -0.08009    0.00000
   14      0.25730    0.00000

Gap: 1.127 eV
Transition (v -> c):
  (s=0, k=0, n=2, [0.00, 0.00, 0.00]) -> (s=0, k=0, n=3, [0.00, 0.00, 0.00])

Forces in eV/Ang:
  0 Na    0.02911   -0.02856   -0.05373
  1 Na   -0.07987    0.06511   -0.00795
  2 Na    0.04384   -0.02838   -0.07302
  3 Na   -0.03371    0.02557   -0.08470
  4 Na    0.09654   -0.07698    0.09310
  5 Na   -0.05582    0.04322    0.12629

System changes: positions 

Initializing position-dependent things.

Density initialized from wave functions
           .--------------------------------------.  
          /|                                      |  
         / |                                      |  
        /  |                                      |  
       /   |                                      |  
      /    |                                      |  
     /     |                                      |  
    /      |                                      |  
   /       |                                      |  
  /        |                                      |  
 *         |           Na                         |  
 |         |                                      |  
 |         |                Na                    |  
 |         |                                      |  
 |         |            Na                        |  
 |         |                    Na                |  
 |         |                                      |  
 |         |                 Na                   |  
 |         |                                      |  
 |         |            Na                        |  
 |         .--------------------------------------.  
 |        /                                      /   
 |       /                                      /    
 |      /                                      /     
 |     /                                      /      
 |    /                                      /       
 |   /                                      /        
 |  /                                      /         
 | /                                      /          
 |/                                      /           
 *--------------------------------------*            

Positions:
   0 Na    11.535763    5.076187    9.507337    ( 0.0000,  0.0000,  0.0000)
   1 Na     9.059928    7.078568   10.853837    ( 0.0000,  0.0000,  0.0000)
   2 Na     6.566544    8.994472   11.704775    ( 0.0000,  0.0000,  0.0000)
   3 Na     7.511239    8.198397    4.939861    ( 0.0000,  0.0000,  0.0000)
   4 Na     9.698159    6.432777    7.165971    ( 0.0000,  0.0000,  0.0000)
   5 Na     7.211875    8.808766    8.421632    ( 0.0000,  0.0000,  0.0000)

Unit cell:
           periodic     x           y           z      points  spacing
  1. axis:    no    16.000000    0.000000    0.000000    64     0.2500
  2. axis:    no     0.000000   16.000000    0.000000    64     0.2500
  3. axis:    no     0.000000    0.000000   16.000000    64     0.2500

  Lengths:  16.000000  16.000000  16.000000
  Angles:   90.000000  90.000000  90.000000

Effective grid spacing dv^(1/3) = 0.2500

                     log10-error:    total        iterations:
           time      wfs    density  energy       fermi  poisson
iter:   1  11:23:23  -0.94   +inf    -5.045137    2             
iter:   2  11:23:26  -2.17  -0.69    -4.976758    2             
iter:   3  11:23:29  -2.58  -0.78    -4.822354    2             
iter:   4  11:23:32  -3.45  -1.27    -4.819583    2             
iter:   5  11:23:34  -3.50  -1.31    -4.815792    2             
iter:   6  11:23:37  -4.18  -1.73    -4.815879    2             
iter:   7  11:23:40  -4.29  -1.77    -4.816379    2             
iter:   8  11:23:43  -5.03  -2.13    -4.816417    2             
iter:   9  11:23:46  -5.25  -2.32    -4.816480    1             
iter:  10  11:23:48  -6.01  -2.59    -4.816465    1             
iter:  11  11:23:51  -6.76  -2.85    -4.816465    1             
iter:  12  11:23:54  -6.46  -2.92    -4.816467    1             
iter:  13  11:23:57  -7.78  -3.17    -4.816466    1             
iter:  14  11:23:59  -7.57  -3.22    -4.816464    1             
iter:  15  11:24:02  -7.59  -3.34    -4.816463    1             
iter:  16  11:24:05  -8.59  -3.45    -4.816463    1             
iter:  17  11:24:08  -7.92  -3.49    -4.816463    1             
iter:  18  11:24:11  -8.72  -3.85    -4.816463    1             
iter:  19  11:24:13  -9.19  -3.91    -4.816463    1             
iter:  20  11:24:16  -9.05  -3.98    -4.816463    1             
iter:  21  11:24:19  -9.78  -4.06    -4.816463    1             

Converged after 21 iterations.

Dipole moment: (-0.029172, 0.010455, 0.047532) |e|*Ang

Energy contributions relative to reference atoms: (reference = -26511.662975)

Kinetic:         +8.704791
Potential:       -8.293264
External:        +0.000000
XC:              -5.228951
Entropy (-ST):   -0.000037
Local:           +0.000979
--------------------------
Free energy:     -4.816481
Extrapolated:    -4.816463

Fermi level: -2.27348

 Band  Eigenvalues  Occupancy
    0     -3.82668    2.00000
    1     -2.92734    2.00000
    2     -2.83801    1.99998
    3     -1.71185    0.00003
    4     -1.58784    0.00000
    5     -1.51076    0.00000
    6     -1.28623    0.00000
    7     -0.62553    0.00000
    8     -0.58825    0.00000
    9     -0.55781    0.00000
   10     -0.53068    0.00000
   11     -0.41022    0.00000
   12     -0.24294    0.00000
   13     -0.08128    0.00000
   14      0.23615    0.00000

Gap: 1.126 eV
Transition (v -> c):
  (s=0, k=0, n=2, [0.00, 0.00, 0.00]) -> (s=0, k=0, n=3, [0.00, 0.00, 0.00])

Forces in eV/Ang:
  0 Na    0.03021   -0.02404    0.06032
  1 Na    0.09699   -0.08092   -0.05909
  2 Na   -0.06418    0.05566    0.04942
  3 Na    0.04270   -0.02040    0.13291
  4 Na   -0.10281    0.08788   -0.04770
  5 Na   -0.00292   -0.01820   -0.13611

System changes: positions 

Initializing position-dependent things.

Density initialized from wave functions
           .--------------------------------------.  
          /|                                      |  
         / |                                      |  
        /  |                                      |  
       /   |                                      |  
      /    |                                      |  
     /     |                                      |  
    /      |                                      |  
   /       |                                      |  
  /        |                                      |  
 *         |          Na                          |  
 |         |                                      |  
 |         |                Na                    |  
 |         |                                      |  
 |         |            Na                        |  
 |         |                     Na               |  
 |         |                                      |  
 |         |                 Na                   |  
 |         |             Na                       |  
 |         |                                      |  
 |         .--------------------------------------.  
 |        /                                      /   
 |       /                                      /    
 |      /                                      /     
 |     /                                      /      
 |    /                                      /       
 |   /                                      /        
 |  /                                      /         
 | /                                      /          
 |/                                      /           
 *--------------------------------------*            

Positions:
   0 Na    11.654747    5.007439    9.506396    ( 0.0000,  0.0000,  0.0000)
   1 Na     9.137076    6.986027   10.726995    ( 0.0000,  0.0000,  0.0000)
   2 Na     6.490444    8.974642   11.739410    ( 0.0000,  0.0000,  0.0000)
   3 Na     7.537475    8.243881    5.088152    ( 0.0000,  0.0000,  0.0000)
   4 Na     9.632221    6.517928    7.169224    ( 0.0000,  0.0000,  0.0000)
   5 Na     7.130948    8.852203    8.361075    ( 0.0000,  0.0000,  0.0000)

Unit cell:
           periodic     x           y           z      points  spacing
  1. axis:    no    16.000000    0.000000    0.000000    64     0.2500
  2. axis:    no     0.000000   16.000000    0.000000    64     0.2500
  3. axis:    no     0.000000    0.000000   16.000000    64     0.2500

  Lengths:  16.000000  16.000000  16.000000
  Angles:   90.000000  90.000000  90.000000

Effective grid spacing dv^(1/3) = 0.2500

                     log10-error:    total        iterations:
           time      wfs    density  energy       fermi  poisson
iter:   1  11:24:24  -1.07   +inf    -4.949749    3             
iter:   2  11:24:26  -2.27  -0.84    -4.921919    2             
iter:   3  11:24:29  -2.78  -0.91    -4.848965    2             
iter:   4  11:24:32  -3.65  -1.36    -4.847990    1             
iter:   5  11:24:35  -3.82  -1.44    -4.846295    1             
iter:   6  11:24:37  -4.42  -1.82    -4.846289    1             
iter:   7  11:24:40  -4.44  -1.89    -4.846697    1             
iter:   8  11:24:43  -5.30  -2.30    -4.846729    1             
iter:   9  11:24:46  -5.32  -2.43    -4.846762    1             
iter:  10  11:24:49  -6.62  -2.84    -4.846756    1             
iter:  11  11:24:51  -6.56  -2.90    -4.846754    1             
iter:  12  11:24:54  -7.69  -3.42    -4.846754    1             
iter:  13  11:24:57  -8.34  -3.46    -4.846753    1             
iter:  14  11:25:00  -7.78  -3.49    -4.846754    1             
iter:  15  11:25:03  -8.75  -3.74    -4.846753    1             
iter:  16  11:25:05  -9.10  -3.79    -4.846753    1             
iter:  17  11:25:08  -8.60  -3.88    -4.846754    1             
iter:  18  11:25:11  -9.19  -4.27    -4.846754    1             

Converged after 18 iterations.

Dipole moment: (0.026973, -0.030870, -0.017866) |e|*Ang

Energy contributions relative to reference atoms: (reference = -26511.662975)

Kinetic:         +8.397891
Potential:       -8.051851
External:        +0.000000
XC:              -5.193621
Entropy (-ST):   -0.000030
Local:           +0.000843
--------------------------
Free energy:     -4.846768
Extrapolated:    -4.846754

Fermi level: -2.27352

 Band  Eigenvalues  Occupancy
    0     -3.82097    2.00000
    1     -2.88829    1.99999
    2     -2.86753    1.99999
    3     -1.70019    0.00002
    4     -1.55653    0.00000
    5     -1.54042    0.00000
    6     -1.28063    0.00000
    7     -0.62150    0.00000
    8     -0.61537    0.00000
    9     -0.55650    0.00000
   10     -0.52030    0.00000
   11     -0.39622    0.00000
   12     -0.23675    0.00000
   13     -0.08398    0.00000
   14      0.26152    0.00000

Gap: 1.167 eV
Transition (v -> c):
  (s=0, k=0, n=2, [0.00, 0.00, 0.00]) -> (s=0, k=0, n=3, [0.00, 0.00, 0.00])

Forces in eV/Ang:
  0 Na   -0.02649    0.01689   -0.01033
  1 Na   -0.01738    0.01187   -0.00217
  2 Na    0.03460   -0.01487   -0.03170
  3 Na    0.01376   -0.00780   -0.01532
  4 Na    0.00322    0.00506    0.01547
  5 Na   -0.00766   -0.01109    0.04408

System changes: positions 

Initializing position-dependent things.

Density initialized from wave functions
           .--------------------------------------.  
          /|                                      |  
         / |                                      |  
        /  |                                      |  
       /   |                                      |  
      /    |                                      |  
     /     |                                      |  
    /      |                                      |  
   /       |                                      |  
  /        |                                      |  
 *         |           Na                         |  
 |         |                                      |  
 |         |                Na                    |  
 |         |                                      |  
 |         |            Na                        |  
 |         |                    Na                |  
 |         |                                      |  
 |         |                 Na                   |  
 |         |                                      |  
 |         |             Na                       |  
 |         .--------------------------------------.  
 |        /                                      /   
 |       /                                      /    
 |      /                                      /     
 |     /                                      /      
 |    /                                      /       
 |   /                                      /        
 |  /                                      /         
 | /                                      /          
 |/                                      /           
 *--------------------------------------*            

Positions:
   0 Na    11.533459    4.995272    9.646908    ( 0.0000,  0.0000,  0.0000)
   1 Na     9.112167    7.091644   10.773737    ( 0.0000,  0.0000,  0.0000)
   2 Na     6.593106    9.225056   11.614009    ( 0.0000,  0.0000,  0.0000)
   3 Na     7.601279    8.063333    5.025364    ( 0.0000,  0.0000,  0.0000)
   4 Na     9.636959    6.449400    7.231866    ( 0.0000,  0.0000,  0.0000)
   5 Na     7.107947    8.780128    8.304837    ( 0.0000,  0.0000,  0.0000)

Unit cell:
           periodic     x           y           z      points  spacing
  1. axis:    no    16.000000    0.000000    0.000000    64     0.2500
  2. axis:    no     0.000000   16.000000    0.000000    64     0.2500
  3. axis:    no     0.000000    0.000000   16.000000    64     0.2500

  Lengths:  16.000000  16.000000  16.000000
  Angles:   90.000000  90.000000  90.000000

Effective grid spacing dv^(1/3) = 0.2500

                     log10-error:    total        iterations:
           time      wfs    density  energy       fermi  poisson
iter:   1  11:25:15  -1.06   +inf    -4.855085    2             
iter:   2  11:25:18  -2.27  -1.14    -4.855298    2             
iter:   3  11:25:21  -3.07  -1.17    -4.849832    2             
iter:   4  11:25:24  -3.92  -1.52    -4.850017    1             
iter:   5  11:25:27  -4.33  -1.61    -4.850561    2             
iter:   6  11:25:29  -4.94  -1.93    -4.850864    1             
iter:   7  11:25:32  -4.84  -2.06    -4.851255    2             
iter:   8  11:25:35  -5.60  -2.47    -4.851294    1             
iter:   9  11:25:38  -5.59  -2.58    -4.851309    2             
iter:  10  11:25:41  -7.06  -3.09    -4.851307    1             
iter:  11  11:25:43  -6.92  -3.15    -4.851307    1             
iter:  12  11:25:46  -7.88  -3.43    -4.851307    1             
iter:  13  11:25:49  -8.46  -3.55    -4.851307    1             
iter:  14  11:25:52  -8.56  -3.60    -4.851307    1             
iter:  15  11:25:55  -9.04  -3.70    -4.851307    1             
iter:  16  11:25:57  -8.76  -3.76    -4.851307    1             
iter:  17  11:26:00  -9.50  -3.93    -4.851307    1             
iter:  18  11:26:03  -8.59  -3.97    -4.851307    1             
iter:  19  11:26:06  -9.58  -4.28    -4.851307    1             

Converged after 19 iterations.

Dipole moment: (0.016004, -0.016494, -0.011920) |e|*Ang

Energy contributions relative to reference atoms: (reference = -26511.662975)

Kinetic:         +9.004088
Potential:       -8.538813
External:        +0.000000
XC:              -5.317620
Entropy (-ST):   -0.000025
Local:           +0.001050
--------------------------
Free energy:     -4.851320
Extrapolated:    -4.851307

Fermi level: -2.27254

 Band  Eigenvalues  Occupancy
    0     -3.83397    2.00000
    1     -2.88602    1.99999
    2     -2.88233    1.99999
    3     -1.69037    0.00002
    4     -1.55443    0.00000
    5     -1.53419    0.00000
    6     -1.29100    0.00000
    7     -0.60774    0.00000
    8     -0.60375    0.00000
    9     -0.54713    0.00000
   10     -0.52403    0.00000
   11     -0.41690    0.00000
   12     -0.22580    0.00000
   13     -0.07949    0.00000
   14      0.26938    0.00000

Gap: 1.192 eV
Transition (v -> c):
  (s=0, k=0, n=2, [0.00, 0.00, 0.00]) -> (s=0, k=0, n=3, [0.00, 0.00, 0.00])

Forces in eV/Ang:
  0 Na    0.00224   -0.00315    0.00090
  1 Na   -0.00256    0.00158   -0.00883
  2 Na    0.00260    0.00202    0.00869
  3 Na    0.00594   -0.00255    0.00426
  4 Na   -0.00548    0.00640    0.00439
  5 Na   -0.00274   -0.00428   -0.00928

System changes: positions 

Initializing position-dependent things.

Density initialized from wave functions
           .--------------------------------------.  
          /|                                      |  
         / |                                      |  
        /  |                                      |  
       /   |                                      |  
[...]
 |         |                                      |  
 |         |                                      |  
 |         .--------------------------------------.  
 |        /                                      /   
 |       /                                      /    
 |      /                                      /     
 |     /                                      /      
 |    /                                      /       
 |   /                                      /        
 |  /                                      /         
 | /                                      /          
 |/                                      /           
 *--------------------------------------*            

Positions:
   0 Na     8.266050    9.599590    8.690549    ( 0.0000,  0.0000,  0.0000)
   1 Na     6.390172    8.049261   11.007075    ( 0.0000,  0.0000,  0.0000)
   2 Na     4.942556    9.968878    8.318613    ( 0.0000,  0.0000,  0.0000)
   3 Na     7.190276    9.812261    5.514131    ( 0.0000,  0.0000,  0.0000)
   4 Na    10.029638    7.792851    6.473243    ( 0.0000,  0.0000,  0.0000)
   5 Na     9.499382    6.710154    9.847654    ( 0.0000,  0.0000,  0.0000)

Unit cell:
           periodic     x           y           z      points  spacing
  1. axis:    no    16.000000    0.000000    0.000000    64     0.2500
  2. axis:    no     0.000000   16.000000    0.000000    64     0.2500
  3. axis:    no     0.000000    0.000000   16.000000    64     0.2500

  Lengths:  16.000000  16.000000  16.000000
  Angles:   90.000000  90.000000  90.000000

Effective grid spacing dv^(1/3) = 0.2500

                     log10-error:    total        iterations:
           time      wfs    density  energy       fermi  poisson
iter:   1  11:28:25  -1.29   +inf    -4.912980    4             
iter:   2  11:28:28  -2.45  -1.07    -4.907858    2             
iter:   3  11:28:31  -2.92  -1.13    -4.887614    4             
iter:   4  11:28:33  -3.82  -1.68    -4.887433    2             
iter:   5  11:28:36  -4.35  -1.73    -4.886829    2             
iter:   6  11:28:39  -4.50  -1.97    -4.886886    2             
iter:   7  11:28:42  -4.64  -2.01    -4.886690    2             
iter:   8  11:28:45  -5.36  -2.43    -4.886689    2             
iter:   9  11:28:47  -5.49  -2.49    -4.886686    1             
iter:  10  11:28:50  -6.17  -2.91    -4.886687    1             
iter:  11  11:28:53  -6.79  -2.94    -4.886687    1             
iter:  12  11:28:56  -6.82  -2.97    -4.886690    2             
iter:  13  11:28:59  -7.37  -3.34    -4.886691    1             
iter:  14  11:29:01  -7.89  -3.41    -4.886691    1             
iter:  15  11:29:04  -7.54  -3.46    -4.886691    1             
iter:  16  11:29:07  -8.77  -3.72    -4.886691    1             
iter:  17  11:29:10  -8.88  -3.79    -4.886691    1             
iter:  18  11:29:13  -8.83  -3.88    -4.886691    1             
iter:  19  11:29:15  -9.13  -4.09    -4.886691    1             

Converged after 19 iterations.

Dipole moment: (-0.070672, -0.102063, -0.050805) |e|*Ang

Energy contributions relative to reference atoms: (reference = -26511.662975)

Kinetic:         +8.887470
Potential:       -8.303460
External:        +0.000000
XC:              -5.470970
Entropy (-ST):   -0.000058
Local:           +0.000299
--------------------------
Free energy:     -4.886720
Extrapolated:    -4.886691

Fermi level: -2.24617

 Band  Eigenvalues  Occupancy
    0     -3.93531    2.00000
    1     -2.81412    1.99998
    2     -2.81121    1.99998
    3     -1.71077    0.00004
    4     -1.55472    0.00000
    5     -1.53578    0.00000
    6     -1.22822    0.00000
    7     -0.69987    0.00000
    8     -0.68247    0.00000
    9     -0.33095    0.00000
   10     -0.29988    0.00000
   11     -0.24408    0.00000
   12     -0.20527    0.00000
   13     -0.11304    0.00000
   14      0.24303    0.00000

Gap: 1.100 eV
Transition (v -> c):
  (s=0, k=0, n=2, [0.00, 0.00, 0.00]) -> (s=0, k=0, n=3, [0.00, 0.00, 0.00])

Forces in eV/Ang:
  0 Na   -0.00452    0.00658   -0.00368
  1 Na   -0.00605    0.00272   -0.00313
  2 Na    0.00769   -0.00240    0.00088
  3 Na    0.00344   -0.00293    0.00687
  4 Na   -0.00571    0.00400   -0.00430
  5 Na    0.00520   -0.00789    0.00338

System changes: positions 

Initializing position-dependent things.

Density initialized from wave functions
           .--------------------------------------.  
          /|                                      |  
         / |                                      |  
        /  |                                      |  
       /   |                                      |  
      /    |                                      |  
     /     |                                      |  
    /      |                                      |  
   /       |                                      |  
  /        |                                      |  
 *         |           Na                         |  
 |         |                                      |  
 |         |                Na                    |  
 |         |                                      |  
 |         |            Na                        |  
 |         |                    Na                |  
 |         |                                      |  
 |         |                 Na                   |  
 |         |                                      |  
 |         |             Na                       |  
 |         .--------------------------------------.  
 |        /                                      /   
 |       /                                      /    
 |      /                                      /     
 |     /                                      /      
 |    /                                      /       
 |   /                                      /        
 |  /                                      /         
 | /                                      /          
 |/                                      /           
 *--------------------------------------*            

Positions:
   0 Na    11.533459    4.995272    9.646908    ( 0.0000,  0.0000,  0.0000)
   1 Na     9.112167    7.091644   10.773737    ( 0.0000,  0.0000,  0.0000)
   2 Na     6.593106    9.225056   11.614009    ( 0.0000,  0.0000,  0.0000)
   3 Na     7.601279    8.063333    5.025364    ( 0.0000,  0.0000,  0.0000)
   4 Na     9.636959    6.449400    7.231866    ( 0.0000,  0.0000,  0.0000)
   5 Na     7.107947    8.780128    8.304837    ( 0.0000,  0.0000,  0.0000)

Unit cell:
           periodic     x           y           z      points  spacing
  1. axis:    no    16.000000    0.000000    0.000000    64     0.2500
  2. axis:    no     0.000000   16.000000    0.000000    64     0.2500
  3. axis:    no     0.000000    0.000000   16.000000    64     0.2500

  Lengths:  16.000000  16.000000  16.000000
  Angles:   90.000000  90.000000  90.000000

Effective grid spacing dv^(1/3) = 0.2500

                     log10-error:    total        iterations:
           time      wfs    density  energy       fermi  poisson
iter:   1  11:29:20  +0.51   +inf   -10.089467    27            
iter:   2  11:29:23  -0.41  +0.04    -9.315856    5             
iter:   3  11:29:25  -1.10  +0.01    -6.403570    10            
iter:   4  11:29:28  -1.50  -0.16    -5.001570    10            
iter:   5  11:29:31  -2.29  -0.48    -4.930300    3             
iter:   6  11:29:34  -1.97  -0.54    -4.879163    9             
iter:   7  11:29:36  -2.94  -0.80    -4.872631    2             
iter:   8  11:29:39  -2.81  -0.89    -4.844232    4             
iter:   9  11:29:42  -3.74  -1.24    -4.847760    3             
iter:  10  11:29:45  -3.57  -1.32    -4.851089    2             
iter:  11  11:29:48  -4.27  -1.72    -4.851116    2             
iter:  12  11:29:50  -5.06  -1.86    -4.851181    1             
iter:  13  11:29:53  -5.54  -1.92    -4.851253    1             
iter:  14  11:29:56  -5.41  -2.01    -4.851196    2             
iter:  15  11:29:59  -6.18  -2.17    -4.851139    1             
iter:  16  11:30:02  -6.54  -2.21    -4.851136    1             
iter:  17  11:30:04  -5.21  -2.25    -4.851306    1             
iter:  18  11:30:07  -6.03  -2.68    -4.851311    2             
iter:  19  11:30:10  -6.44  -2.78    -4.851308    1             
iter:  20  11:30:13  -7.41  -3.07    -4.851308    1             
iter:  21  11:30:16  -7.28  -3.14    -4.851307    1             
iter:  22  11:30:18  -7.96  -3.43    -4.851307    1             
iter:  23  11:30:21  -8.03  -3.55    -4.851307    1             
iter:  24  11:30:24  -8.85  -3.77    -4.851307    1             
iter:  25  11:30:27  -8.79  -3.80    -4.851307    1             
iter:  26  11:30:30  -9.28  -4.04    -4.851307    1             

Converged after 26 iterations.

Dipole moment: (0.016011, -0.016451, -0.011962) |e|*Ang

Energy contributions relative to reference atoms: (reference = -26511.662975)

Kinetic:         +9.001687
Potential:       -8.536842
External:        +0.000000
XC:              -5.317062
Entropy (-ST):   -0.000025
Local:           +0.000922
--------------------------
Free energy:     -4.851320
Extrapolated:    -4.851307

Fermi level: -2.27262

 Band  Eigenvalues  Occupancy
    0     -3.83406    2.00000
    1     -2.88611    1.99999
    2     -2.88241    1.99999
    3     -1.69045    0.00002
    4     -1.55450    0.00000
    5     -1.53426    0.00000
    6     -1.29106    0.00000
    7     -0.60778    0.00000
    8     -0.60382    0.00000
    9     -0.54720    0.00000
   10     -0.52410    0.00000
   11     -0.41697    0.00000
   12     -0.22588    0.00000
   13     -0.07953    0.00000
   14      0.26949    0.00000

Gap: 1.192 eV
Transition (v -> c):
  (s=0, k=0, n=2, [0.00, 0.00, 0.00]) -> (s=0, k=0, n=3, [0.00, 0.00, 0.00])
System changes: positions 

Initializing position-dependent things.

Density initialized from wave functions
           .--------------------------------------.  
          /|                                      |  
         / |                                      |  
        /  |                                      |  
       /   |                                      |  
      /    |                                      |  
     /     |                                      |  
    /      |                                      |  
   /       |                                      |  
  /        |                                      |  
 *         |                                      |  
 |         |          Na                          |  
 |         |                                      |  
 |         |       Na      NNa                    |  
 |         |                                      |  
 |         |                                      |  
 |         |                                      |  
 |         |             Na   Na                  |  
 |         |                                      |  
 |         |                                      |  
 |         .--------------------------------------.  
 |        /                                      /   
 |       /                                      /    
 |      /                                      /     
 |     /                                      /      
 |    /                                      /       
 |   /                                      /        
 |  /                                      /         
 | /                                      /          
 |/                                      /           
 *--------------------------------------*            

Positions:
   0 Na     8.266050    9.599590    8.690549    ( 0.0000,  0.0000,  0.0000)
   1 Na     6.390172    8.049261   11.007075    ( 0.0000,  0.0000,  0.0000)
   2 Na     4.942556    9.968878    8.318613    ( 0.0000,  0.0000,  0.0000)
   3 Na     7.190276    9.812261    5.514131    ( 0.0000,  0.0000,  0.0000)
   4 Na    10.029638    7.792851    6.473243    ( 0.0000,  0.0000,  0.0000)
   5 Na     9.499382    6.710154    9.847654    ( 0.0000,  0.0000,  0.0000)

Unit cell:
           periodic     x           y           z      points  spacing
  1. axis:    no    16.000000    0.000000    0.000000    64     0.2500
  2. axis:    no     0.000000   16.000000    0.000000    64     0.2500
  3. axis:    no     0.000000    0.000000   16.000000    64     0.2500

  Lengths:  16.000000  16.000000  16.000000
  Angles:   90.000000  90.000000  90.000000

Effective grid spacing dv^(1/3) = 0.2500

                     log10-error:    total        iterations:
           time      wfs    density  energy       fermi  poisson
iter:   1  11:30:33  +0.33   +inf    -7.053865    25            
iter:   2  11:30:36  -0.64  -0.09    -6.714733    4             
iter:   3  11:30:39  -1.20  -0.12    -5.051719    29            
iter:   4  11:30:41  -1.96  -0.46    -5.002754    3             
iter:   5  11:30:44  -2.09  -0.51    -4.871819    6             
iter:   6  11:30:47  -2.58  -0.88    -4.908360    4             
iter:   7  11:30:50  -2.80  -0.92    -4.880846    4             
iter:   8  11:30:53  -3.59  -1.28    -4.883186    2             
iter:   9  11:30:55  -3.77  -1.36    -4.886497    3             
iter:  10  11:30:58  -4.25  -1.64    -4.886288    2             
iter:  11  11:31:01  -4.83  -1.80    -4.886360    2             
iter:  12  11:31:04  -4.97  -1.85    -4.886401    2             
iter:  13  11:31:07  -5.18  -2.00    -4.886576    2             
iter:  14  11:31:09  -5.90  -2.12    -4.886553    2             
iter:  15  11:31:12  -5.98  -2.19    -4.886556    2             
iter:  16  11:31:15  -6.41  -2.28    -4.886583    2             
iter:  17  11:31:18  -5.43  -2.33    -4.886691    2             
iter:  18  11:31:21  -6.49  -2.82    -4.886691    1             
iter:  19  11:31:23  -6.78  -2.90    -4.886691    1             
iter:  20  11:31:26  -7.62  -3.16    -4.886691    1             
iter:  21  11:31:29  -7.21  -3.22    -4.886691    1             
iter:  22  11:31:32  -8.43  -3.66    -4.886691    1             
iter:  23  11:31:35  -8.95  -3.69    -4.886691    1             
iter:  24  11:31:37  -8.41  -3.74    -4.886691    1             
iter:  25  11:31:40  -9.41  -4.00    -4.886691    1             
iter:  26  11:31:43 -10.02  -4.03    -4.886691    1             

Converged after 26 iterations.

Dipole moment: (-0.070639, -0.101861, -0.050944) |e|*Ang

Energy contributions relative to reference atoms: (reference = -26511.662975)

Kinetic:         +8.881250
Potential:       -8.298080
External:        +0.000000
XC:              -5.470077
Entropy (-ST):   -0.000058
Local:           +0.000245
--------------------------
Free energy:     -4.886720
Extrapolated:    -4.886691

Fermi level: -2.24624

 Band  Eigenvalues  Occupancy
    0     -3.93537    2.00000
    1     -2.81419    1.99998
    2     -2.81129    1.99998
    3     -1.71083    0.00004
    4     -1.55476    0.00000
    5     -1.53588    0.00000
    6     -1.22824    0.00000
    7     -0.69994    0.00000
    8     -0.68254    0.00000
    9     -0.33102    0.00000
   10     -0.29998    0.00000
   11     -0.24408    0.00000
   12     -0.20529    0.00000
   13     -0.11304    0.00000
   14      0.24301    0.00000

Gap: 1.100 eV
Transition (v -> c):
  (s=0, k=0, n=2, [0.00, 0.00, 0.00]) -> (s=0, k=0, n=3, [0.00, 0.00, 0.00])
Timing:                                      incl.     excl.
-------------------------------------------------------------------
Density initialized from wave functions:     4.590     4.589   0.4% |
 Symmetrize density:                         0.000     0.000   0.0% |
Forces:                                     13.276    13.276   1.1% |
Hamiltonian:                                39.906     0.104   0.0% |
 Atomic:                                     5.742     0.018   0.0% |
  XC Correction:                             5.724     5.724   0.5% |
 Calculate atomic Hamiltonians:              3.314     3.314   0.3% |
 Communicate:                                0.000     0.000   0.0% |
 Initialize Hamiltonian:                     0.000     0.000   0.0% |
 Poisson:                                    0.210     0.210   0.0% |
 XC 3D grid:                                30.535    30.535   2.6% ||
LCAO initialization:                         0.097     0.016   0.0% |
 LCAO eigensolver:                           0.010     0.000   0.0% |
  Calculate projections:                     0.000     0.000   0.0% |
  DenseAtomicCorrection:                     0.000     0.000   0.0% |
  Distribute overlap matrix:                 0.000     0.000   0.0% |
  Orbital Layouts:                           0.000     0.000   0.0% |
  Potential matrix:                          0.009     0.009   0.0% |
 LCAO to grid:                               0.049     0.049   0.0% |
 Set positions (LCAO WFS):                   0.022     0.004   0.0% |
  Basic WFS set positions:                   0.000     0.000   0.0% |
  Basis functions set positions:             0.000     0.000   0.0% |
  P tci:                                     0.011     0.011   0.0% |
  ST tci:                                    0.003     0.003   0.0% |
  mktci:                                     0.005     0.005   0.0% |
PWDescriptor:                                0.010     0.010   0.0% |
Redistribute:                                0.011     0.011   0.0% |
SCF-cycle:                                1094.249     0.358   0.0% |
 Davidson:                                 170.022    42.880   3.7% ||
  Apply H:                                  22.112    20.688   1.8% ||
   HMM T:                                    1.425     1.425   0.1% |
  Subspace diag:                            30.525     0.048   0.0% |
   calc_h_matrix:                           25.227     3.187   0.3% |
    Apply H:                                22.040    20.540   1.8% ||
     HMM T:                                  1.500     1.500   0.1% |
   diagonalize:                              0.091     0.091   0.0% |
   rotate_psi:                               5.159     5.159   0.4% |
  calc. matrices:                           64.895    20.906   1.8% ||
   Apply H:                                 43.989    41.080   3.5% ||
    HMM T:                                   2.909     2.909   0.2% |
  diagonalize:                               0.383     0.383   0.0% |
  rotate_psi:                                9.226     9.226   0.8% |
 Density:                                  104.727     0.008   0.0% |
  Atomic density matrices:                   0.304     0.304   0.0% |
  Mix:                                      87.780    87.780   7.5% |--|
  Multipole moments:                         0.082     0.082   0.0% |
  Pseudo density:                           16.553    16.546   1.4% ||
   Symmetrize density:                       0.007     0.007   0.0% |
 Hamiltonian:                              818.545     2.135   0.2% |
  Atomic:                                  117.919     0.356   0.0% |
   XC Correction:                          117.563   117.563  10.1% |---|
  Calculate atomic Hamiltonians:            67.985    67.985   5.8% |-|
  Communicate:                               0.004     0.004   0.0% |
  Poisson:                                   4.185     4.185   0.4% |
  XC 3D grid:                              626.317   626.317  53.6% |--------------------|
 Orthonormalize:                             0.598     0.002   0.0% |
  calc_s_matrix:                             0.105     0.105   0.0% |
  inverse-cholesky:                          0.005     0.005   0.0% |
  projections:                               0.349     0.349   0.0% |
  rotate_psi_s:                              0.135     0.135   0.0% |
Set symmetry:                                0.001     0.001   0.0% |
Other:                                      15.703    15.703   1.3% ||
-------------------------------------------------------------------
Total:                                              1167.843 100.0%

Memory usage: 1.02 GiB
Date: Thu Feb 13 11:31:43 2020
