------------------ Task 6 start ------------------
---- Iteration: 1 ---- k=4 ----
Energy: -4.1239 eV ---- Time: 2.15 s
---- Iteration: 2 ---- k=8 ----
Energy: -4.1744 eV ---- Time: 4.46 s
---- Iteration: 3 ---- k=12 ----
Energy: -4.1694 eV ---- Time: 11.34 s
---- Iteration: 4 ---- k=16 ----
Energy: -4.1704 eV ---- Time: 24.00 s
---- Iteration: 5 ---- k=20 ----
Energy: -4.1713 eV ---- Time: 44.31 s
---- Iteration: 6 ---- k=24 ----
Energy: -4.1706 eV ---- Time: 74.01 s
---- Iteration: 7 ---- k=28 ----
Energy: -4.1708 eV ---- Time: 115.81 s
---- Iteration: 8 ---- k=32 ----
Energy: -4.1708 eV ---- Time: 170.84 s
Written to DB
Optimal k-parameter: k=36
Calculator saved
Electronic structure calculation started

  ___ ___ ___ _ _ _  
 |   |   |_  | | | | 
 | | | | | . | | | | 
 |__ |  _|___|_____|  19.8.1
 |___|_|             

User:   ericlin@hebbe07-6
Date:   Thu Mar 12 09:41:43 2020
Arch:   x86_64
Pid:    4196
Python: 3.7.2
gpaw:   /apps/Hebbe7/software/MPI/intel/2019.1.144-GCC-8.2.0-2.31.1/impi/2018.4.274/GPAW/19.8.1-Python-3.7.2/lib/python3.7/site-packages/gpaw
_gpaw:  /apps/Hebbe7/software/MPI/intel/2019.1.144-GCC-8.2.0-2.31.1/impi/2018.4.274/GPAW/19.8.1-Python-3.7.2/bin/
        gpaw-python
ase:    /apps/Hebbe7/software/MPI/intel/2019.1.144-GCC-8.2.0-2.31.1/impi/2018.4.274/ASE/3.18.0-Python-3.7.2/lib/python3.7/site-packages/ase (version 3.18.0)
numpy:  /apps/Hebbe7/software/MPI/intel/2019.1.144-GCC-8.2.0-2.31.1/impi/2018.4.274/SciPy-bundle/2019.03/lib/python3.7/site-packages/numpy (version 1.16.2)
scipy:  /apps/Hebbe7/software/MPI/intel/2019.1.144-GCC-8.2.0-2.31.1/impi/2018.4.274/SciPy-bundle/2019.03/lib/python3.7/site-packages/scipy (version 1.2.1)
libxc:  4.3.4
units:  Angstrom and eV
cores:  1

Reading from Al_calc.gpw
Read dipole, energy, free_energy
Reading input parameters:
  kpts: [32 32 32]
  mode: {ecut: 300.0,
         gammacentered: False,
         name: pw}

Initialize ...

Al-setup:
  name: Aluminium
  id: 2e6447feaea722efcff26bf034b25f30
  Z: 13
  valence: 3
  core: 10
  charge: 0.0
  file: /apps/Common/Core/GPAW-setups/0.9.20000/Al.LDA.gz
  compensation charges: gauss, rc=0.34, lmax=2
  cutoffs: 1.91(filt), 2.36(core),
  valence states:
                energy  radius
    3s(2.00)    -7.830   1.085
    3p(1.00)    -2.783   1.085
    *s          19.382   1.085
    *p          24.428   1.085
    *d           0.000   1.085

  Using partial waves for Al as LCAO basis

Reference energy: -6578.421307

Spin-paired calculation

Occupation numbers:
  Fermi-Dirac: width=0.1000 eV

Convergence criteria:
  Maximum total energy change: 0.0005 eV / electron
  Maximum integral of absolute density change: 0.0001 electrons
  Maximum integral of absolute eigenstate change: 4e-08 eV^2
  Maximum number of iterations: 333

Symmetries present (total): 48

  ( 1  0  0)  ( 1  0  0)  ( 1  0  0)  ( 1  0  0)  ( 1  0 -1)  ( 1  0 -1)
  ( 1  0 -1)  ( 1 -1  0)  ( 0  1  0)  ( 0  0  1)  ( 1  0  0)  ( 1 -1  0)
  ( 1 -1  0)  ( 1  0 -1)  ( 0  0  1)  ( 0  1  0)  ( 1 -1  0)  ( 1  0  0)

  ( 1  0 -1)  ( 1  0 -1)  ( 1 -1  0)  ( 1 -1  0)  ( 1 -1  0)  ( 1 -1  0)
  ( 0  1 -1)  ( 0  0 -1)  ( 1  0  0)  ( 1  0 -1)  ( 0 -1  1)  ( 0 -1  0)
  ( 0  0 -1)  ( 0  1 -1)  ( 1  0 -1)  ( 1  0  0)  ( 0 -1  0)  ( 0 -1  1)

  ( 0  1  0)  ( 0  1  0)  ( 0  1  0)  ( 0  1  0)  ( 0  1 -1)  ( 0  1 -1)
  ( 1  0  0)  ( 0  1 -1)  ( 0  0  1)  (-1  1  0)  ( 1  0 -1)  ( 0  1  0)
  ( 0  0  1)  (-1  1  0)  ( 1  0  0)  ( 0  1 -1)  ( 0  0 -1)  (-1  1  0)

  ( 0  1 -1)  ( 0  1 -1)  ( 0  0  1)  ( 0  0  1)  ( 0  0  1)  ( 0  0  1)
  ( 0  0 -1)  (-1  1  0)  ( 1  0  0)  ( 0  1  0)  ( 0 -1  1)  (-1  0  1)
  ( 1  0 -1)  ( 0  1  0)  ( 0  1  0)  ( 1  0  0)  (-1  0  1)  ( 0 -1  1)

  ( 0  0 -1)  ( 0  0 -1)  ( 0  0 -1)  ( 0  0 -1)  ( 0 -1  1)  ( 0 -1  1)
  ( 1  0 -1)  ( 0  1 -1)  ( 0 -1  0)  (-1  0  0)  ( 1 -1  0)  ( 0  0  1)
  ( 0  1 -1)  ( 1  0 -1)  (-1  0  0)  ( 0 -1  0)  ( 0 -1  0)  (-1  0  1)

  ( 0 -1  1)  ( 0 -1  1)  ( 0 -1  0)  ( 0 -1  0)  ( 0 -1  0)  ( 0 -1  0)
  ( 0 -1  0)  (-1  0  1)  ( 1 -1  0)  ( 0  0 -1)  ( 0 -1  1)  (-1  0  0)
  ( 1 -1  0)  ( 0  0  1)  ( 0 -1  1)  (-1  0  0)  ( 1 -1  0)  ( 0  0 -1)

  (-1  1  0)  (-1  1  0)  (-1  1  0)  (-1  1  0)  (-1  0  1)  (-1  0  1)
  ( 0  1  0)  ( 0  1 -1)  (-1  0  1)  (-1  0  0)  ( 0  0  1)  ( 0 -1  1)
  ( 0  1 -1)  ( 0  1  0)  (-1  0  0)  (-1  0  1)  ( 0 -1  1)  ( 0  0  1)

  (-1  0  1)  (-1  0  1)  (-1  0  0)  (-1  0  0)  (-1  0  0)  (-1  0  0)
  (-1  1  0)  (-1  0  0)  ( 0  0 -1)  ( 0 -1  0)  (-1  1  0)  (-1  0  1)
  (-1  0  0)  (-1  1  0)  ( 0 -1  0)  ( 0  0 -1)  (-1  0  1)  (-1  1  0)
Note: your k-points are not as symmetric as your crystal!

32768 k-points: 32 x 32 x 32 Monkhorst-Pack grid
2992 k-points in the irreducible part of the Brillouin zone
       k-points in crystal coordinates                weights
   0:     0.01562500    0.01562500   -0.01562500          6/32768
   1:     0.01562500    0.01562500    0.01562500          2/32768
   2:     0.04687500   -0.01562500   -0.01562500          6/32768
   3:     0.04687500    0.01562500   -0.04687500         12/32768
   4:     0.04687500    0.01562500   -0.01562500         12/32768
   5:     0.04687500    0.01562500    0.01562500          6/32768
   6:     0.04687500    0.04687500   -0.04687500          6/32768
   7:     0.04687500    0.04687500   -0.01562500          6/32768
   8:     0.04687500    0.04687500    0.01562500          6/32768
   9:     0.04687500    0.04687500    0.04687500          2/32768
          ...
2991:     0.48437500    0.48437500    0.48437500          2/32768

Wave functions: Plane wave expansion
  Cutoff energy: 300.000 eV
  Number of coefficients (min, max): 176, 204
  Pulay-stress correction: 0.000000 eV/Ang^3 (de/decut=0.000000)
  Using FFTW library
  ScaLapack parameters: grid=1x1, blocksize=None
  Wavefunction extrapolation:
    Improved wavefunction reuse through dual PAW basis 

Eigensolver
   Davidson(niter=2, smin=None, normalize=True) 

Densities:
  Coarse grid: 12*12*12 grid
  Fine grid: 24*24*24 grid
  Total Charge: 0.000000 

Density mixing:
  Method: separate
  Backend: pulay
  Linear mixing parameter: 0.05
  Mixing with 5 old densities
  Damping of long wave oscillations: 50 

Hamiltonian:
  XC and Coulomb potentials evaluated on a 24*24*24 grid
  Using the LDA Exchange-Correlation functional
 

Memory estimate:
  Process memory now: 275.93 MiB
  Calculator: 112.18 MiB
    Density: 0.68 MiB
      Arrays: 0.34 MiB
      Localized functions: 0.21 MiB
      Mixer: 0.13 MiB
    Hamiltonian: 0.23 MiB
      Arrays: 0.22 MiB
      XC: 0.00 MiB
      Poisson: 0.00 MiB
      vbar: 0.00 MiB
    Wavefunctions: 111.27 MiB
      Arrays psit_nG: 37.25 MiB
      Eigensolver: 0.03 MiB
      Projections: 2.37 MiB
      Projectors: 62.23 MiB
      PW-descriptor: 9.38 MiB

Total number of cores used: 1

Number of atoms: 1
Number of atomic orbitals: 4
Number of bands in calculation: 4
Bands to converge: occupied states only
Number of valence electrons: 3

... initialized

Input parameters:
  fixdensity: True
  kpts: {npoints: 60,
         path: GXWKGLUWLK,UX}
  symmetry: off

Initialize ...

Al-setup:
  name: Aluminium
  id: 2e6447feaea722efcff26bf034b25f30
  Z: 13
  valence: 3
  core: 10
  charge: 0.0
  file: /apps/Common/Core/GPAW-setups/0.9.20000/Al.LDA.gz
  compensation charges: gauss, rc=0.34, lmax=2
  cutoffs: 1.91(filt), 2.36(core),
  valence states:
                energy  radius
    3s(2.00)    -7.830   1.085
    3p(1.00)    -2.783   1.085
    *s          19.382   1.085
    *p          24.428   1.085
    *d           0.000   1.085

  Using partial waves for Al as LCAO basis

Reference energy: -6578.421307

Spin-paired calculation

Occupation numbers:
  Fixed Fermi level
  Fermi-Dirac: width=0.1000 eV

Convergence criteria:
  Maximum total energy change: 0.0005 eV / electron
  Maximum integral of absolute density change: 0.0001 electrons
  Maximum integral of absolute eigenstate change: 4e-08 eV^2
  Maximum number of iterations: 333

Symmetries present (total): 1

  ( 1  0  0)
  ( 0  1  0)
  ( 0  0  1)

60 k-points
60 k-points in the irreducible part of the Brillouin zone
       k-points in crystal coordinates                weights
   0:     0.00000000    0.00000000    0.00000000       0.01666667
   1:     0.06250000    0.00000000    0.06250000       0.01666667
   2:     0.12500000    0.00000000    0.12500000       0.01666667
   3:     0.18750000    0.00000000    0.18750000       0.01666667
   4:     0.25000000    0.00000000    0.25000000       0.01666667
   5:     0.31250000    0.00000000    0.31250000       0.01666667
   6:     0.37500000    0.00000000    0.37500000       0.01666667
   7:     0.43750000    0.00000000    0.43750000       0.01666667
   8:     0.50000000    0.00000000    0.50000000       0.01666667
   9:     0.50000000    0.06250000    0.56250000       0.01666667
          ...
  59:     0.50000000    0.00000000    0.50000000       0.01666667

Wave functions: Plane wave expansion
  Cutoff energy: 300.000 eV
  Number of coefficients (min, max): 176, 206
  Pulay-stress correction: 0.000000 eV/Ang^3 (de/decut=0.000000)
  Using FFTW library
  ScaLapack parameters: grid=1x1, blocksize=None
  Wavefunction extrapolation:
    Improved wavefunction reuse through dual PAW basis 

Eigensolver
   Davidson(niter=2, smin=None, normalize=True) 

No density mixing

Memory estimate:
  Process memory now: 280.17 MiB
  Calculator: 3.23 MiB
    Density: 0.68 MiB
      Arrays: 0.34 MiB
      Localized functions: 0.21 MiB
      Mixer: 0.13 MiB
    Hamiltonian: 0.23 MiB
      Arrays: 0.22 MiB
      XC: 0.00 MiB
      Poisson: 0.00 MiB
      vbar: 0.00 MiB
    Wavefunctions: 2.32 MiB
      Arrays psit_nG: 0.75 MiB
      Eigensolver: 0.03 MiB
      Projections: 0.05 MiB
      Projectors: 1.23 MiB
      PW-descriptor: 0.25 MiB

Total number of cores used: 1

Number of atoms: 1
Number of atomic orbitals: 4
Number of bands in calculation: 4
Bands to converge: occupied states only
Number of valence electrons: 3

... initialized

Initializing position-dependent things.

Creating initial wave functions:
  4 bands from LCAO basis set

                
                
                
       Al       
                
                
                
                

Positions:
   0 Al     0.000000    0.000000    0.000000    ( 0.0000,  0.0000,  0.0000)

Unit cell:
           periodic     x           y           z      points  spacing
  1. axis:    yes    0.000000    2.021500    2.021500    12     0.1945
  2. axis:    yes    2.021500    0.000000    2.021500    12     0.1945
  3. axis:    yes    2.021500    2.021500    0.000000    12     0.1945

  Lengths:   2.858833   2.858833   2.858833
  Angles:   60.000000  60.000000  60.000000

Effective grid spacing dv^(1/3) = 0.2122

                     log10-error:    total        iterations:
           time      wfs    density  energy       fermi  poisson
iter:   1  09:41:50  +1.12           -4.075207    32            
iter:   2  09:41:50  -2.49           -4.077076    30            
iter:   3  09:41:50  -3.77           -4.077120    31            
iter:   4  09:41:51  -4.84           -4.077123    30            
iter:   5  09:41:51  -5.87           -4.077124    32            
iter:   6  09:41:52  -6.89           -4.077124    30            
iter:   7  09:41:52  -7.90           -4.077124    30            

Converged after 7 iterations.

Dipole moment: (-0.000000, -0.000000, -0.000000) |e|*Ang

Energy contributions relative to reference atoms: (reference = -6578.421307)

Kinetic:         +4.147227
Potential:       -2.133402
External:        +0.000000
XC:              -6.073994
Entropy (-ST):   -0.022854
Local:           -0.005527
--------------------------
Free energy:     -4.088551
Extrapolated:    -4.077124

Fixed Fermi level: 6.95043

Showing only first 2 kpts
 Kpt  Band  Eigenvalues  Occupancy
  0     0     -4.15185    0.03333
  0     1     20.83458    0.00000
  0     2     20.83458    0.00000

  1     0     -4.01065    0.03333
  1     1     18.28502    0.00000
  1     2     18.28502    0.00000


No gap
Electronic band structure calculated
Input parameters:
  kpts: {size: (40, 40, 40)}

Initialize ...

Al-setup:
  name: Aluminium
  id: 2e6447feaea722efcff26bf034b25f30
  Z: 13
  valence: 3
  core: 10
  charge: 0.0
  file: /apps/Common/Core/GPAW-setups/0.9.20000/Al.LDA.gz
  compensation charges: gauss, rc=0.34, lmax=2
  cutoffs: 1.91(filt), 2.36(core),
  valence states:
                energy  radius
    3s(2.00)    -7.830   1.085
    3p(1.00)    -2.783   1.085
    *s          19.382   1.085
    *p          24.428   1.085
    *d           0.000   1.085

  Using partial waves for Al as LCAO basis

Reference energy: -6578.421307

Spin-paired calculation

Occupation numbers:
  Fixed Fermi level
  Fermi-Dirac: width=0.1000 eV

Convergence criteria:
  Maximum total energy change: 0.0005 eV / electron
  Maximum integral of absolute density change: 0.0001 electrons
  Maximum integral of absolute eigenstate change: 4e-08 eV^2
  Maximum number of iterations: 333

Symmetries present (total): 1

  ( 1  0  0)
  ( 0  1  0)
  ( 0  0  1)

64000 k-points: 40 x 40 x 40 Monkhorst-Pack grid
64000 k-points in the irreducible part of the Brillouin zone
       k-points in crystal coordinates                weights
   0:    -0.48750000   -0.48750000   -0.48750000          1/64000
   1:    -0.48750000   -0.48750000   -0.46250000          1/64000
   2:    -0.48750000   -0.48750000   -0.43750000          1/64000
   3:    -0.48750000   -0.48750000   -0.41250000          1/64000
   4:    -0.48750000   -0.48750000   -0.38750000          1/64000
   5:    -0.48750000   -0.48750000   -0.36250000          1/64000
   6:    -0.48750000   -0.48750000   -0.33750000          1/64000
   7:    -0.48750000   -0.48750000   -0.31250000          1/64000
   8:    -0.48750000   -0.48750000   -0.28750000          1/64000
   9:    -0.48750000   -0.48750000   -0.26250000          1/64000
          ...
63999:     0.48750000    0.48750000    0.48750000          1/64000

Wave functions: Plane wave expansion
  Cutoff energy: 300.000 eV
  Number of coefficients (min, max): 175, 204
  Pulay-stress correction: 0.000000 eV/Ang^3 (de/decut=0.000000)
  Using FFTW library
  ScaLapack parameters: grid=1x1, blocksize=None
  Wavefunction extrapolation:
    Improved wavefunction reuse through dual PAW basis 

Eigensolver
   Davidson(niter=2, smin=None, normalize=True) 

No density mixing

Memory estimate:
  Process memory now: 439.48 MiB
  Calculator: 2380.40 MiB
    Density: 0.68 MiB
      Arrays: 0.34 MiB
      Localized functions: 0.21 MiB
      Mixer: 0.13 MiB
    Hamiltonian: 0.23 MiB
      Arrays: 0.22 MiB
      XC: 0.00 MiB
      Poisson: 0.00 MiB
      vbar: 0.00 MiB
    Wavefunctions: 2379.49 MiB
      Arrays psit_nG: 796.88 MiB
      Eigensolver: 0.03 MiB
      Projections: 50.78 MiB
      Projectors: 1332.52 MiB
      PW-descriptor: 199.28 MiB

Total number of cores used: 1

Number of atoms: 1
Number of atomic orbitals: 4
Number of bands in calculation: 4
Bands to converge: occupied states only
Number of valence electrons: 3

... initialized

Initializing position-dependent things.

Creating initial wave functions:
  4 bands from LCAO basis set

                
                
                
       Al       
                
                
                
                

Positions:
   0 Al     0.000000    0.000000    0.000000    ( 0.0000,  0.0000,  0.0000)

Unit cell:
           periodic     x           y           z      points  spacing
  1. axis:    yes    0.000000    2.021500    2.021500    12     0.1945
  2. axis:    yes    2.021500    0.000000    2.021500    12     0.1945
  3. axis:    yes    2.021500    2.021500    0.000000    12     0.1945

  Lengths:   2.858833   2.858833   2.858833
  Angles:   60.000000  60.000000  60.000000

Effective grid spacing dv^(1/3) = 0.2122

                     log10-error:    total        iterations:
           time      wfs    density  energy       fermi  poisson
iter:   1  10:00:07  +1.21           -4.168951    2             
iter:   2  10:05:14  -2.58           -4.170738    2             
iter:   3  10:10:17  -4.26           -4.170762    2             
iter:   4  10:15:20  -5.71           -4.170762    2             
iter:   5  10:20:23  -7.11           -4.170762    2             
iter:   6  10:25:26  -8.45           -4.170762    2             

Converged after 6 iterations.

Dipole moment: (-0.000000, -0.000000, -0.000000) |e|*Ang

Energy contributions relative to reference atoms: (reference = -6578.421307)

Kinetic:         +4.048867
Potential:       -2.133402
External:        +0.000000
XC:              -6.073994
Entropy (-ST):   -0.013413
Local:           -0.005527
--------------------------
Free energy:     -4.177469
Extrapolated:    -4.170762

Fixed Fermi level: 6.95043

Showing only first 2 kpts
 Kpt  Band  Eigenvalues  Occupancy
  0     0      2.14621    0.00003
  0     1      2.81100    0.00003
  0     2     18.17324    0.00000

  1     0      1.95433    0.00003
  1     1      3.04473    0.00003
  1     2     17.67370    0.00000


No gap
Electronic DOS computed
Electronic structure calculation completed
Timing:                              incl.     excl.
-----------------------------------------------------------
Hamiltonian:                         0.040     0.001   0.0% |
 Atomic:                             0.033     0.001   0.0% |
  XC Correction:                     0.031     0.031   0.0% |
 Calculate atomic Hamiltonians:      0.001     0.001   0.0% |
 Communicate:                        0.000     0.000   0.0% |
 Poisson:                            0.000     0.000   0.0% |
 XC 3D grid:                         0.005     0.005   0.0% |
LCAO initialization:               694.368     1.459   0.1% |
 LCAO eigensolver:                 173.024     3.019   0.1% |
  Calculate projections:             1.516     1.516   0.1% |
  DenseAtomicCorrection:             6.078     6.078   0.2% |
  Distribute overlap matrix:         1.504     1.504   0.1% |
  Orbital Layouts:                   5.906     5.906   0.2% |
  Potential matrix:                  0.060     0.060   0.0% |
  Sum over cells:                  154.941   154.941   5.9% |-|
 LCAO to grid:                     266.392   266.392  10.1% |---|
 Set positions (LCAO WFS):         253.493    32.487   1.2% |
  Basic WFS set positions:           0.000     0.000   0.0% |
  Basis functions set positions:     0.000     0.000   0.0% |
  P tci:                            60.753    60.753   2.3% ||
  ST tci:                          160.200   160.200   6.1% |-|
  mktci:                             0.052     0.052   0.0% |
PWDescriptor:                        5.737     5.737   0.2% |
Redistribute:                        0.001     0.001   0.0% |
SCF-cycle:                        1863.102    63.983   2.4% ||
 Davidson:                        1761.870   510.463  19.3% |-------|
  Apply H:                         107.417    86.895   3.3% ||
   HMM T:                           20.522    20.522   0.8% |
  Subspace diag:                   297.589    32.862   1.2% |
   calc_h_matrix:                  183.931    70.407   2.7% ||
    Apply H:                       113.524    88.537   3.3% ||
     HMM T:                         24.988    24.988   0.9% |
   diagonalize:                     50.466    50.466   1.9% ||
   rotate_psi:                      30.330    30.330   1.1% |
  calc. matrices:                  677.939   463.474  17.5% |------|
   Apply H:                        214.466   172.413   6.5% |--|
    HMM T:                          42.052    42.052   1.6% ||
  diagonalize:                     129.980   129.980   4.9% |-|
  rotate_psi:                       38.482    38.482   1.5% ||
 Orthonormalize:                    37.248     5.525   0.2% |
  calc_s_matrix:                     8.703     8.703   0.3% |
  inverse-cholesky:                 11.352    11.352   0.4% |
  projections:                       9.766     9.766   0.4% |
  rotate_psi_s:                      1.903     1.903   0.1% |
Set symmetry:                        2.822     2.822   0.1% |
Other:                              78.605    78.605   3.0% ||
-----------------------------------------------------------
Total:                                      2644.675 100.0%

Memory usage: 2.93 GiB
Date: Thu Mar 12 10:25:48 2020
------------------ Task 6 done -------------------
