#  #

250  atoms
1  atom types

0.00000000 14.27650000  xlo xhi
0.00000000 14.27650000  ylo yhi
0.00000000 14.27650000  zlo zhi

Atoms

1   1  0.00000000 0.00000000 0.00000000
2   1  1.42765000 1.42765000 1.42765000
3   1  0.00000000 0.00000000 2.85530000
4   1  1.42765000 1.42765000 4.28295000
5   1  0.00000000 0.00000000 5.71060000
6   1  1.42765000 1.42765000 7.13825000
7   1  0.00000000 0.00000000 8.56590000
8   1  1.42765000 1.42765000 9.99355000
9   1  0.00000000 0.00000000 11.42120000
10   1  1.42765000 1.42765000 12.84885000
11   1  0.00000000 2.85530000 0.00000000
12   1  1.42765000 4.28295000 1.42765000
13   1  0.00000000 2.85530000 2.85530000
14   1  1.42765000 4.28295000 4.28295000
15   1  0.00000000 2.85530000 5.71060000
16   1  1.42765000 4.28295000 7.13825000
17   1  0.00000000 2.85530000 8.56590000
18   1  1.42765000 4.28295000 9.99355000
19   1  0.00000000 2.85530000 11.42120000
20   1  1.42765000 4.28295000 12.84885000
21   1  0.00000000 5.71060000 0.00000000
22   1  1.42765000 7.13825000 1.42765000
23   1  0.00000000 5.71060000 2.85530000
24   1  1.42765000 7.13825000 4.28295000
25   1  0.00000000 5.71060000 5.71060000
26   1  1.42765000 7.13825000 7.13825000
27   1  0.00000000 5.71060000 8.56590000
28   1  1.42765000 7.13825000 9.99355000
29   1  0.00000000 5.71060000 11.42120000
30   1  1.42765000 7.13825000 12.84885000
31   1  0.00000000 8.56590000 0.00000000
32   1  1.42765000 9.99355000 1.42765000
33   1  0.00000000 8.56590000 2.85530000
34   1  1.42765000 9.99355000 4.28295000
35   1  0.00000000 8.56590000 5.71060000
36   1  1.42765000 9.99355000 7.13825000
37   1  0.00000000 8.56590000 8.56590000
38   1  1.42765000 9.99355000 9.99355000
39   1  0.00000000 8.56590000 11.42120000
40   1  1.42765000 9.99355000 12.84885000
41   1  0.00000000 11.42120000 0.00000000
42   1  1.42765000 12.84885000 1.42765000
43   1  0.00000000 11.42120000 2.85530000
44   1  1.42765000 12.84885000 4.28295000
45   1  0.00000000 11.42120000 5.71060000
46   1  1.42765000 12.84885000 7.13825000
47   1  0.00000000 11.42120000 8.56590000
48   1  1.42765000 12.84885000 9.99355000
49   1  0.00000000 11.42120000 11.42120000
50   1  1.42765000 12.84885000 12.84885000
51   1  2.85530000 0.00000000 0.00000000
52   1  4.28295000 1.42765000 1.42765000
53   1  2.85530000 0.00000000 2.85530000
54   1  4.28295000 1.42765000 4.28295000
55   1  2.85530000 0.00000000 5.71060000
56   1  4.28295000 1.42765000 7.13825000
57   1  2.85530000 0.00000000 8.56590000
58   1  4.28295000 1.42765000 9.99355000
59   1  2.85530000 0.00000000 11.42120000
60   1  4.28295000 1.42765000 12.84885000
61   1  2.85530000 2.85530000 0.00000000
62   1  4.28295000 4.28295000 1.42765000
63   1  2.85530000 2.85530000 2.85530000
64   1  4.28295000 4.28295000 4.28295000
65   1  2.85530000 2.85530000 5.71060000
66   1  4.28295000 4.28295000 7.13825000
67   1  2.85530000 2.85530000 8.56590000
68   1  4.28295000 4.28295000 9.99355000
69   1  2.85530000 2.85530000 11.42120000
70   1  4.28295000 4.28295000 12.84885000
71   1  2.85530000 5.71060000 0.00000000
72   1  4.28295000 7.13825000 1.42765000
73   1  2.85530000 5.71060000 2.85530000
74   1  4.28295000 7.13825000 4.28295000
75   1  2.85530000 5.71060000 5.71060000
76   1  4.28295000 7.13825000 7.13825000
77   1  2.85530000 5.71060000 8.56590000
78   1  4.28295000 7.13825000 9.99355000
79   1  2.85530000 5.71060000 11.42120000
80   1  4.28295000 7.13825000 12.84885000
81   1  2.85530000 8.56590000 0.00000000
82   1  4.28295000 9.99355000 1.42765000
83   1  2.85530000 8.56590000 2.85530000
84   1  4.28295000 9.99355000 4.28295000
85   1  2.85530000 8.56590000 5.71060000
86   1  4.28295000 9.99355000 7.13825000
87   1  2.85530000 8.56590000 8.56590000
88   1  4.28295000 9.99355000 9.99355000
89   1  2.85530000 8.56590000 11.42120000
90   1  4.28295000 9.99355000 12.84885000
91   1  2.85530000 11.42120000 0.00000000
92   1  4.28295000 12.84885000 1.42765000
93   1  2.85530000 11.42120000 2.85530000
94   1  4.28295000 12.84885000 4.28295000
95   1  2.85530000 11.42120000 5.71060000
96   1  4.28295000 12.84885000 7.13825000
97   1  2.85530000 11.42120000 8.56590000
98   1  4.28295000 12.84885000 9.99355000
99   1  2.85530000 11.42120000 11.42120000
100   1  4.28295000 12.84885000 12.84885000
101   1  5.71060000 0.00000000 0.00000000
102   1  7.13825000 1.42765000 1.42765000
103   1  5.71060000 0.00000000 2.85530000
104   1  7.13825000 1.42765000 4.28295000
105   1  5.71060000 0.00000000 5.71060000
106   1  7.13825000 1.42765000 7.13825000
107   1  5.71060000 0.00000000 8.56590000
108   1  7.13825000 1.42765000 9.99355000
109   1  5.71060000 0.00000000 11.42120000
110   1  7.13825000 1.42765000 12.84885000
111   1  5.71060000 2.85530000 0.00000000
112   1  7.13825000 4.28295000 1.42765000
113   1  5.71060000 2.85530000 2.85530000
114   1  7.13825000 4.28295000 4.28295000
115   1  5.71060000 2.85530000 5.71060000
116   1  7.13825000 4.28295000 7.13825000
117   1  5.71060000 2.85530000 8.56590000
118   1  7.13825000 4.28295000 9.99355000
119   1  5.71060000 2.85530000 11.42120000
120   1  7.13825000 4.28295000 12.84885000
121   1  5.71060000 5.71060000 0.00000000
122   1  7.13825000 7.13825000 1.42765000
123   1  5.71060000 5.71060000 2.85530000
124   1  7.13825000 7.13825000 4.28295000
125   1  5.71060000 5.71060000 5.71060000
126   1  7.13825000 7.13825000 7.13825000
127   1  5.71060000 5.71060000 8.56590000
128   1  7.13825000 7.13825000 9.99355000
129   1  5.71060000 5.71060000 11.42120000
130   1  7.13825000 7.13825000 12.84885000
131   1  5.71060000 8.56590000 0.00000000
132   1  7.13825000 9.99355000 1.42765000
133   1  5.71060000 8.56590000 2.85530000
134   1  7.13825000 9.99355000 4.28295000
135   1  5.71060000 8.56590000 5.71060000
136   1  7.13825000 9.99355000 7.13825000
137   1  5.71060000 8.56590000 8.56590000
138   1  7.13825000 9.99355000 9.99355000
139   1  5.71060000 8.56590000 11.42120000
140   1  7.13825000 9.99355000 12.84885000
141   1  5.71060000 11.42120000 0.00000000
142   1  7.13825000 12.84885000 1.42765000
143   1  5.71060000 11.42120000 2.85530000
144   1  7.13825000 12.84885000 4.28295000
145   1  5.71060000 11.42120000 5.71060000
146   1  7.13825000 12.84885000 7.13825000
147   1  5.71060000 11.42120000 8.56590000
148   1  7.13825000 12.84885000 9.99355000
149   1  5.71060000 11.42120000 11.42120000
150   1  7.13825000 12.84885000 12.84885000
151   1  8.56590000 0.00000000 0.00000000
152   1  9.99355000 1.42765000 1.42765000
153   1  8.56590000 0.00000000 2.85530000
154   1  9.99355000 1.42765000 4.28295000
155   1  8.56590000 0.00000000 5.71060000
156   1  9.99355000 1.42765000 7.13825000
157   1  8.56590000 0.00000000 8.56590000
158   1  9.99355000 1.42765000 9.99355000
159   1  8.56590000 0.00000000 11.42120000
160   1  9.99355000 1.42765000 12.84885000
161   1  8.56590000 2.85530000 0.00000000
162   1  9.99355000 4.28295000 1.42765000
163   1  8.56590000 2.85530000 2.85530000
164   1  9.99355000 4.28295000 4.28295000
165   1  8.56590000 2.85530000 5.71060000
166   1  9.99355000 4.28295000 7.13825000
167   1  8.56590000 2.85530000 8.56590000
168   1  9.99355000 4.28295000 9.99355000
169   1  8.56590000 2.85530000 11.42120000
170   1  9.99355000 4.28295000 12.84885000
171   1  8.56590000 5.71060000 0.00000000
172   1  9.99355000 7.13825000 1.42765000
173   1  8.56590000 5.71060000 2.85530000
174   1  9.99355000 7.13825000 4.28295000
175   1  8.56590000 5.71060000 5.71060000
176   1  9.99355000 7.13825000 7.13825000
177   1  8.56590000 5.71060000 8.56590000
178   1  9.99355000 7.13825000 9.99355000
179   1  8.56590000 5.71060000 11.42120000
180   1  9.99355000 7.13825000 12.84885000
181   1  8.56590000 8.56590000 0.00000000
182   1  9.99355000 9.99355000 1.42765000
183   1  8.56590000 8.56590000 2.85530000
184   1  9.99355000 9.99355000 4.28295000
185   1  8.56590000 8.56590000 5.71060000
186   1  9.99355000 9.99355000 7.13825000
187   1  8.56590000 8.56590000 8.56590000
188   1  9.99355000 9.99355000 9.99355000
189   1  8.56590000 8.56590000 11.42120000
190   1  9.99355000 9.99355000 12.84885000
191   1  8.56590000 11.42120000 0.00000000
192   1  9.99355000 12.84885000 1.42765000
193   1  8.56590000 11.42120000 2.85530000
194   1  9.99355000 12.84885000 4.28295000
195   1  8.56590000 11.42120000 5.71060000
196   1  9.99355000 12.84885000 7.13825000
197   1  8.56590000 11.42120000 8.56590000
198   1  9.99355000 12.84885000 9.99355000
199   1  8.56590000 11.42120000 11.42120000
200   1  9.99355000 12.84885000 12.84885000
201   1  11.42120000 0.00000000 0.00000000
202   1  12.84885000 1.42765000 1.42765000
203   1  11.42120000 0.00000000 2.85530000
204   1  12.84885000 1.42765000 4.28295000
205   1  11.42120000 0.00000000 5.71060000
206   1  12.84885000 1.42765000 7.13825000
207   1  11.42120000 0.00000000 8.56590000
208   1  12.84885000 1.42765000 9.99355000
209   1  11.42120000 0.00000000 11.42120000
210   1  12.84885000 1.42765000 12.84885000
211   1  11.42120000 2.85530000 0.00000000
212   1  12.84885000 4.28295000 1.42765000
213   1  11.42120000 2.85530000 2.85530000
214   1  12.84885000 4.28295000 4.28295000
215   1  11.42120000 2.85530000 5.71060000
216   1  12.84885000 4.28295000 7.13825000
217   1  11.42120000 2.85530000 8.56590000
218   1  12.84885000 4.28295000 9.99355000
219   1  11.42120000 2.85530000 11.42120000
220   1  12.84885000 4.28295000 12.84885000
221   1  11.42120000 5.71060000 0.00000000
222   1  12.84885000 7.13825000 1.42765000
223   1  11.42120000 5.71060000 2.85530000
224   1  12.84885000 7.13825000 4.28295000
225   1  11.42120000 5.71060000 5.71060000
226   1  12.84885000 7.13825000 7.13825000
227   1  11.42120000 5.71060000 8.56590000
228   1  12.84885000 7.13825000 9.99355000
229   1  11.42120000 5.71060000 11.42120000
230   1  12.84885000 7.13825000 12.84885000
231   1  11.42120000 8.56590000 0.00000000
232   1  12.84885000 9.99355000 1.42765000
233   1  11.42120000 8.56590000 2.85530000
234   1  12.84885000 9.99355000 4.28295000
235   1  11.42120000 8.56590000 5.71060000
236   1  12.84885000 9.99355000 7.13825000
237   1  11.42120000 8.56590000 8.56590000
238   1  12.84885000 9.99355000 9.99355000
239   1  11.42120000 8.56590000 11.42120000
240   1  12.84885000 9.99355000 12.84885000
241   1  11.42120000 11.42120000 0.00000000
242   1  12.84885000 12.84885000 1.42765000
243   1  11.42120000 11.42120000 2.85530000
244   1  12.84885000 12.84885000 4.28295000
245   1  11.42120000 11.42120000 5.71060000
246   1  12.84885000 12.84885000 7.13825000
247   1  11.42120000 11.42120000 8.56590000
248   1  12.84885000 12.84885000 9.99355000
249   1  11.42120000 11.42120000 11.42120000
250   1  12.84885000 12.84885000 12.84885000
