#  #

129  atoms
4  atom types

0.00000000 11.42120000  xlo xhi
0.00000000 11.42120000  ylo yhi
0.00000000 11.42120000  zlo zhi

Atoms

1   1  0.00000000 0.00000000 0.00000000
2   1  1.42765000 1.42765000 1.42765000
3   1  0.00000000 0.00000000 2.85530000
4   1  1.42765000 1.42765000 4.28295000
5   1  0.00000000 0.00000000 5.71060000
6   1  1.42765000 1.42765000 7.13825000
7   1  0.00000000 0.00000000 8.56590000
8   1  1.42765000 1.42765000 9.99355000
9   1  0.00000000 2.85530000 0.00000000
10   1  1.42765000 4.28295000 1.42765000
11   1  0.00000000 2.85530000 2.85530000
12   1  1.42765000 4.28295000 4.28295000
13   1  0.00000000 2.85530000 5.71060000
14   1  1.42765000 4.28295000 7.13825000
15   1  0.00000000 2.85530000 8.56590000
16   1  1.42765000 4.28295000 9.99355000
17   1  0.00000000 5.71060000 0.00000000
18   1  1.42765000 7.13825000 1.42765000
19   1  0.00000000 5.71060000 2.85530000
20   1  1.42765000 7.13825000 4.28295000
21   1  0.00000000 5.71060000 5.71060000
22   1  1.42765000 7.13825000 7.13825000
23   1  0.00000000 5.71060000 8.56590000
24   1  1.42765000 7.13825000 9.99355000
25   1  0.00000000 8.56590000 0.00000000
26   1  1.42765000 9.99355000 1.42765000
27   1  0.00000000 8.56590000 2.85530000
28   1  1.42765000 9.99355000 4.28295000
29   1  0.00000000 8.56590000 5.71060000
30   1  1.42765000 9.99355000 7.13825000
31   1  0.00000000 8.56590000 8.56590000
32   1  1.42765000 9.99355000 9.99355000
33   1  2.85530000 0.00000000 0.00000000
34   1  4.28295000 1.42765000 1.42765000
35   1  2.85530000 0.00000000 2.85530000
36   1  4.28295000 1.42765000 4.28295000
37   1  2.85530000 0.00000000 5.71060000
38   1  4.28295000 1.42765000 7.13825000
39   1  2.85530000 0.00000000 8.56590000
40   1  4.28295000 1.42765000 9.99355000
41   1  2.85530000 2.85530000 0.00000000
42   1  4.28295000 4.28295000 1.42765000
43   1  2.85530000 2.85530000 2.85530000
44   1  4.28295000 4.28295000 4.28295000
45   1  2.85530000 2.85530000 5.71060000
46   1  4.28295000 4.28295000 7.13825000
47   1  2.85530000 2.85530000 8.56590000
48   1  4.28295000 4.28295000 9.99355000
49   1  2.85530000 5.71060000 0.00000000
50   1  4.28295000 7.13825000 1.42765000
51   1  2.85530000 5.71060000 2.85530000
52   1  4.28295000 7.13825000 4.28295000
53   1  2.85530000 5.71060000 5.71060000
54   1  4.28295000 7.13825000 7.13825000
55   1  2.85530000 5.71060000 8.56590000
56   1  4.28295000 7.13825000 9.99355000
57   1  2.85530000 8.56590000 0.00000000
58   1  4.28295000 9.99355000 1.42765000
59   1  2.85530000 8.56590000 2.85530000
60   1  4.28295000 9.99355000 4.28295000
61   1  2.85530000 8.56590000 5.71060000
62   1  4.28295000 9.99355000 7.13825000
63   1  2.85530000 8.56590000 8.56590000
64   1  4.28295000 9.99355000 9.99355000
65   1  5.71060000 0.00000000 0.00000000
66   1  7.13825000 1.42765000 1.42765000
67   1  5.71060000 0.00000000 2.85530000
68   1  7.13825000 1.42765000 4.28295000
69   1  5.71060000 0.00000000 5.71060000
70   1  7.13825000 1.42765000 7.13825000
71   1  5.71060000 0.00000000 8.56590000
72   1  7.13825000 1.42765000 9.99355000
73   1  5.71060000 2.85530000 0.00000000
74   1  7.13825000 4.28295000 1.42765000
75   1  5.71060000 2.85530000 2.85530000
76   1  7.13825000 4.28295000 4.28295000
77   1  5.71060000 2.85530000 5.71060000
78   1  7.13825000 4.28295000 7.13825000
79   1  5.71060000 2.85530000 8.56590000
80   1  7.13825000 4.28295000 9.99355000
81   1  5.71060000 5.71060000 0.00000000
82   1  7.13825000 7.13825000 1.42765000
83   1  5.71060000 5.71060000 2.85530000
84   1  7.13825000 7.13825000 4.28295000
85   1  5.71060000 5.71060000 5.71060000
86   1  7.13825000 7.13825000 7.13825000
87   1  5.71060000 5.71060000 8.56590000
88   1  7.13825000 7.13825000 9.99355000
89   1  5.71060000 8.56590000 0.00000000
90   1  7.13825000 9.99355000 1.42765000
91   1  5.71060000 8.56590000 2.85530000
92   1  7.13825000 9.99355000 4.28295000
93   1  5.71060000 8.56590000 5.71060000
94   1  7.13825000 9.99355000 7.13825000
95   1  5.71060000 8.56590000 8.56590000
96   1  7.13825000 9.99355000 9.99355000
97   1  8.56590000 0.00000000 0.00000000
98   1  9.99355000 1.42765000 1.42765000
99   1  8.56590000 0.00000000 2.85530000
100   1  9.99355000 1.42765000 4.28295000
101   1  8.56590000 0.00000000 5.71060000
102   1  9.99355000 1.42765000 7.13825000
103   1  8.56590000 0.00000000 8.56590000
104   1  9.99355000 1.42765000 9.99355000
105   1  8.56590000 2.85530000 0.00000000
106   1  9.99355000 4.28295000 1.42765000
107   1  8.56590000 2.85530000 2.85530000
108   1  9.99355000 4.28295000 4.28295000
109   1  8.56590000 2.85530000 5.71060000
110   1  9.99355000 4.28295000 7.13825000
111   1  8.56590000 2.85530000 8.56590000
112   1  9.99355000 4.28295000 9.99355000
113   1  8.56590000 5.71060000 0.00000000
114   1  9.99355000 7.13825000 1.42765000
115   1  8.56590000 5.71060000 2.85530000
116   1  9.99355000 7.13825000 4.28295000
117   1  8.56590000 5.71060000 5.71060000
118   1  9.99355000 7.13825000 7.13825000
119   1  8.56590000 5.71060000 8.56590000
120   1  9.99355000 7.13825000 9.99355000
121   1  8.56590000 8.56590000 0.00000000
122   1  9.99355000 9.99355000 1.42765000
123   1  8.56590000 8.56590000 2.85530000
124   1  9.99355000 9.99355000 4.28295000
125   1  8.56590000 8.56590000 5.71060000
126   1  9.99355000 9.99355000 7.13825000
127   2  8.56590000 8.56590000 8.56590000   # Atom 1
128   3  9.99355  9.09355  9.09355          # Atom 2    
129   4  9.99355  10.89355 10.89355         # Atom 3
