
  ___ ___ ___ _ _ _  
 |   |   |_  | | | | 
 | | | | | . | | | | 
 |__ |  _|___|_____|  19.8.1
 |___|_|             

User:   ericlin@hebbe02-1
Date:   Wed Mar  4 08:24:53 2020
Arch:   x86_64
Pid:    31860
Python: 3.7.2
gpaw:   /apps/Hebbe7/software/MPI/intel/2019.1.144-GCC-8.2.0-2.31.1/impi/2018.4.274/GPAW/19.8.1-Python-3.7.2/lib/python3.7/site-packages/gpaw
_gpaw:  /apps/Hebbe7/software/MPI/intel/2019.1.144-GCC-8.2.0-2.31.1/impi/2018.4.274/GPAW/19.8.1-Python-3.7.2/bin/
        gpaw-python
ase:    /apps/Hebbe7/software/MPI/intel/2019.1.144-GCC-8.2.0-2.31.1/impi/2018.4.274/ASE/3.18.0-Python-3.7.2/lib/python3.7/site-packages/ase (version 3.18.0)
numpy:  /apps/Hebbe7/software/MPI/intel/2019.1.144-GCC-8.2.0-2.31.1/impi/2018.4.274/SciPy-bundle/2019.03/lib/python3.7/site-packages/numpy (version 1.16.2)
scipy:  /apps/Hebbe7/software/MPI/intel/2019.1.144-GCC-8.2.0-2.31.1/impi/2018.4.274/SciPy-bundle/2019.03/lib/python3.7/site-packages/scipy (version 1.2.1)
libxc:  4.3.4
units:  Angstrom and eV
cores:  1

Input parameters:
  kpts: [12 12 12]
  mode: {ecut: 300.0,
         gammacentered: False,
         name: pw}

System changes: positions, numbers, cell, pbc, initial_charges, initial_magmoms 

Initialize ...

Si-setup:
  name: Silicon
  id: b152d83ba7c91a8f3191da15c74e1ae7
  Z: 14
  valence: 4
  core: 10
  charge: 0.0
  file: /apps/Common/Core/GPAW-setups/0.9.20000/Si.LDA.gz
  compensation charges: gauss, rc=0.33, lmax=2
  cutoffs: 1.86(filt), 2.06(core),
  valence states:
                energy  radius
    3s(2.00)   -10.878   1.058
    3p(2.00)    -4.162   1.058
    *s          16.334   1.058
    *p          23.049   1.058
    *d           0.000   1.058

  Using partial waves for Si as LCAO basis

Reference energy: -15717.426366

Spin-paired calculation

Occupation numbers:
  Fermi-Dirac: width=0.1000 eV

Convergence criteria:
  Maximum total energy change: 0.0005 eV / electron
  Maximum integral of absolute density change: 0.0001 electrons
  Maximum integral of absolute eigenstate change: 4e-08 eV^2
  Maximum number of iterations: 333

Symmetries present (total): 24

  ( 1  0  0)  ( 1  0  0)  ( 1  0 -1)  ( 1  0 -1)  ( 1 -1  0)  ( 1 -1  0)
  ( 0  1  0)  ( 0  0  1)  ( 0  1 -1)  ( 0  0 -1)  ( 0 -1  1)  ( 0 -1  0)
  ( 0  0  1)  ( 0  1  0)  ( 0  0 -1)  ( 0  1 -1)  ( 0 -1  0)  ( 0 -1  1)

  ( 0  1  0)  ( 0  1  0)  ( 0  1 -1)  ( 0  1 -1)  ( 0  0  1)  ( 0  0  1)
  ( 1  0  0)  ( 0  0  1)  ( 1  0 -1)  ( 0  0 -1)  ( 1  0  0)  ( 0  1  0)
  ( 0  0  1)  ( 1  0  0)  ( 0  0 -1)  ( 1  0 -1)  ( 0  1  0)  ( 1  0  0)

  ( 0  0 -1)  ( 0  0 -1)  ( 0 -1  1)  ( 0 -1  1)  ( 0 -1  0)  ( 0 -1  0)
  ( 1  0 -1)  ( 0  1 -1)  ( 1 -1  0)  ( 0 -1  0)  ( 1 -1  0)  ( 0 -1  1)
  ( 0  1 -1)  ( 1  0 -1)  ( 0 -1  0)  ( 1 -1  0)  ( 0 -1  1)  ( 1 -1  0)

  (-1  1  0)  (-1  1  0)  (-1  0  1)  (-1  0  1)  (-1  0  0)  (-1  0  0)
  (-1  0  1)  (-1  0  0)  (-1  1  0)  (-1  0  0)  (-1  1  0)  (-1  0  1)
  (-1  0  0)  (-1  0  1)  (-1  0  0)  (-1  1  0)  (-1  0  1)  (-1  1  0)
Note: your k-points are not as symmetric as your crystal!

1728 k-points: 12 x 12 x 12 Monkhorst-Pack grid
182 k-points in the irreducible part of the Brillouin zone
       k-points in crystal coordinates                weights
   0:     0.04166667    0.04166667   -0.04166667          6/1728
   1:     0.04166667    0.04166667    0.04166667          2/1728
   2:     0.12500000   -0.04166667   -0.04166667          6/1728
   3:     0.12500000    0.04166667   -0.12500000         12/1728
   4:     0.12500000    0.04166667   -0.04166667         12/1728
   5:     0.12500000    0.04166667    0.04166667          6/1728
   6:     0.12500000    0.12500000   -0.12500000          6/1728
   7:     0.12500000    0.12500000   -0.04166667          6/1728
   8:     0.12500000    0.12500000    0.04166667          6/1728
   9:     0.12500000    0.12500000    0.12500000          2/1728
          ...
 181:     0.45833333    0.45833333    0.45833333          2/1728

Wave functions: Plane wave expansion
  Cutoff energy: 300.000 eV
  Number of coefficients (min, max): 461, 495
  Pulay-stress correction: 0.000000 eV/Ang^3 (de/decut=0.000000)
  Using FFTW library
  ScaLapack parameters: grid=1x1, blocksize=None
  Wavefunction extrapolation:
    Improved wavefunction reuse through dual PAW basis 

Eigensolver
   Davidson(niter=2, smin=None, normalize=True) 

Densities:
  Coarse grid: 16*16*16 grid
  Fine grid: 32*32*32 grid
  Total Charge: 0.000000 

Density mixing:
  Method: separate
  Backend: pulay
  Linear mixing parameter: 0.05
  Mixing with 5 old densities
  Damping of long wave oscillations: 50 

Hamiltonian:
  XC and Coulomb potentials evaluated on a 32*32*32 grid
  Using the LDA Exchange-Correlation functional
 

Memory estimate:
  Process memory now: 102.69 MiB
  Calculator: 24.57 MiB
    Density: 1.63 MiB
      Arrays: 0.81 MiB
      Localized functions: 0.50 MiB
      Mixer: 0.31 MiB
    Hamiltonian: 0.54 MiB
      Arrays: 0.53 MiB
      XC: 0.00 MiB
      Poisson: 0.00 MiB
      vbar: 0.01 MiB
    Wavefunctions: 22.40 MiB
      Arrays psit_nG: 11.00 MiB
      Eigensolver: 0.11 MiB
      Projections: 0.58 MiB
      Projectors: 9.19 MiB
      PW-descriptor: 1.53 MiB

Total number of cores used: 1

Number of atoms: 2
Number of atomic orbitals: 8
Number of bands in calculation: 8
Bands to converge: occupied states only
Number of valence electrons: 8

... initialized

Initializing position-dependent things.

Density initialized from atomic densities
Creating initial wave functions:
  8 bands from LCAO basis set

                    
                    
                    
                    
           Si       
                    
       Si           
                    
                    
                    
                    

Positions:
   0 Si     0.000000    0.000000    0.000000    ( 0.0000,  0.0000,  0.0000)
   1 Si     1.357500    1.357500    1.357500    ( 0.0000,  0.0000,  0.0000)

Unit cell:
           periodic     x           y           z      points  spacing
  1. axis:    yes    0.000000    2.715000    2.715000    16     0.1959
  2. axis:    yes    2.715000    0.000000    2.715000    16     0.1959
  3. axis:    yes    2.715000    2.715000    0.000000    16     0.1959

  Lengths:   3.839590   3.839590   3.839590
  Angles:   60.000000  60.000000  60.000000

Effective grid spacing dv^(1/3) = 0.2138

                     log10-error:    total        iterations:
           time      wfs    density  energy       fermi  poisson
iter:   1  08:25:01  +1.02   +inf   -12.051919    5             
iter:   2  08:25:02  -1.93  -0.80   -12.043891    2             
iter:   3  08:25:04  -1.05  -0.80   -12.472603    28            
iter:   4  08:25:06  -1.98  -0.63   -11.958660    25            
iter:   5  08:25:08  -2.95  -1.15   -11.920997    3             
iter:   6  08:25:10  -2.51  -1.29   -11.883599    4             
iter:   7  08:25:11  -4.39  -2.36   -11.883222    2             
iter:   8  08:25:13  -4.98  -2.85   -11.883266    2             
iter:   9  08:25:15  -6.35  -2.86   -11.883237    2             
iter:  10  08:25:16  -6.47  -3.10   -11.883225    2             
iter:  11  08:25:18  -8.30  -3.70   -11.883225    1             
iter:  12  08:25:20  -7.64  -3.73   -11.883223    2             
iter:  13  08:25:22  -8.97  -4.76   -11.883223    1             

Converged after 13 iterations.

Dipole moment: (-2.925367, -2.925367, -2.925367) |e|*Ang

Energy contributions relative to reference atoms: (reference = -15717.426366)

Kinetic:        +15.563057
Potential:      -13.715291
External:        +0.000000
XC:             -13.703809
Entropy (-ST):   -0.001037
Local:           -0.026662
--------------------------
Free energy:    -11.883742
Extrapolated:   -11.883223

Fermi level: 5.37141

Showing only first 2 kpts
 Kpt  Band  Eigenvalues  Occupancy
  0     2      4.87116    0.00690
  0     3      4.97538    0.00681
  0     4      7.57866    0.00000
  0     5      7.91892    0.00000

  1     2      5.09879    0.00217
  1     3      5.09879    0.00217
  1     4      7.71290    0.00000
  1     5      7.72542    0.00000


Gap: 0.595 eV
Transition (v -> c):
  (s=0, k=1, n=3, [0.04, 0.04, 0.04]) -> (s=0, k=176, n=4, [0.46, 0.46, 0.04])
Writing to kConverge.gpw (mode='')

Writing to Si_calc.gpw (mode='')

Timing:                              incl.     excl.
-----------------------------------------------------------
Hamiltonian:                         0.038     0.000   0.0% |
 Atomic:                             0.031     0.001   0.0% |
  XC Correction:                     0.030     0.030   0.1% |
 Calculate atomic Hamiltonians:      0.001     0.001   0.0% |
 Communicate:                        0.000     0.000   0.0% |
 Initialize Hamiltonian:             0.000     0.000   0.0% |
 Poisson:                            0.000     0.000   0.0% |
 XC 3D grid:                         0.006     0.006   0.0% |
LCAO initialization:                 4.720     0.024   0.1% |
 LCAO eigensolver:                   0.508     0.008   0.0% |
  Calculate projections:             0.005     0.005   0.0% |
  DenseAtomicCorrection:             0.021     0.021   0.1% |
  Distribute overlap matrix:         0.004     0.004   0.0% |
  Orbital Layouts:                   0.019     0.019   0.1% |
  Potential matrix:                  0.048     0.048   0.2% |
  Sum over cells:                    0.402     0.402   1.3% ||
 LCAO to grid:                       3.208     3.208  10.6% |---|
 Set positions (LCAO WFS):           0.981     0.147   0.5% |
  Basic WFS set positions:           0.002     0.002   0.0% |
  Basis functions set positions:     0.000     0.000   0.0% |
  P tci:                             0.328     0.328   1.1% |
  ST tci:                            0.484     0.484   1.6% ||
  mktci:                             0.021     0.021   0.1% |
PWDescriptor:                        0.031     0.031   0.1% |
SCF-cycle:                          22.786     0.789   2.6% ||
 Davidson:                          20.350     5.204  17.2% |------|
  Apply H:                           2.217     1.989   6.6% |--|
   HMM T:                            0.228     0.228   0.8% |
  Subspace diag:                     3.604     0.215   0.7% |
   calc_h_matrix:                    2.753     0.523   1.7% ||
    Apply H:                         2.230     1.987   6.6% |--|
     HMM T:                          0.243     0.243   0.8% |
   diagonalize:                      0.380     0.380   1.3% ||
   rotate_psi:                       0.256     0.256   0.8% |
  calc. matrices:                    7.783     3.373  11.1% |---|
   Apply H:                          4.411     3.959  13.1% |----|
    HMM T:                           0.452     0.452   1.5% ||
  diagonalize:                       1.159     1.159   3.8% |-|
  rotate_psi:                        0.383     0.383   1.3% ||
 Density:                            1.057     0.000   0.0% |
  Atomic density matrices:           0.104     0.104   0.3% |
  Mix:                               0.029     0.029   0.1% |
  Multipole moments:                 0.002     0.002   0.0% |
  Pseudo density:                    0.921     0.826   2.7% ||
   Symmetrize density:               0.095     0.095   0.3% |
 Hamiltonian:                        0.460     0.005   0.0% |
  Atomic:                            0.370     0.010   0.0% |
   XC Correction:                    0.360     0.360   1.2% |
  Calculate atomic Hamiltonians:     0.012     0.012   0.0% |
  Communicate:                       0.000     0.000   0.0% |
  Poisson:                           0.002     0.002   0.0% |
  XC 3D grid:                        0.072     0.072   0.2% |
 Orthonormalize:                     0.129     0.016   0.1% |
  calc_s_matrix:                     0.029     0.029   0.1% |
  inverse-cholesky:                  0.034     0.034   0.1% |
  projections:                       0.041     0.041   0.1% |
  rotate_psi_s:                      0.008     0.008   0.0% |
Set symmetry:                        0.144     0.144   0.5% |
Other:                               2.550     2.550   8.4% |--|
-----------------------------------------------------------
Total:                                        30.269 100.0%

Memory usage: 123.34 MiB
Date: Wed Mar  4 08:25:23 2020
