
  ___ ___ ___ _ _ _  
 |   |   |_  | | | | 
 | | | | | . | | | | 
 |__ |  _|___|_____|  19.8.1
 |___|_|             

User:   ericlin@hebbe02-1
Date:   Wed Mar  4 08:24:40 2020
Arch:   x86_64
Pid:    31860
Python: 3.7.2
gpaw:   /apps/Hebbe7/software/MPI/intel/2019.1.144-GCC-8.2.0-2.31.1/impi/2018.4.274/GPAW/19.8.1-Python-3.7.2/lib/python3.7/site-packages/gpaw
_gpaw:  /apps/Hebbe7/software/MPI/intel/2019.1.144-GCC-8.2.0-2.31.1/impi/2018.4.274/GPAW/19.8.1-Python-3.7.2/bin/
        gpaw-python
ase:    /apps/Hebbe7/software/MPI/intel/2019.1.144-GCC-8.2.0-2.31.1/impi/2018.4.274/ASE/3.18.0-Python-3.7.2/lib/python3.7/site-packages/ase (version 3.18.0)
numpy:  /apps/Hebbe7/software/MPI/intel/2019.1.144-GCC-8.2.0-2.31.1/impi/2018.4.274/SciPy-bundle/2019.03/lib/python3.7/site-packages/numpy (version 1.16.2)
scipy:  /apps/Hebbe7/software/MPI/intel/2019.1.144-GCC-8.2.0-2.31.1/impi/2018.4.274/SciPy-bundle/2019.03/lib/python3.7/site-packages/scipy (version 1.2.1)
libxc:  4.3.4
units:  Angstrom and eV
cores:  1

Input parameters:
  kpts: [4 4 4]
  mode: {ecut: 300.0,
         gammacentered: False,
         name: pw}

System changes: positions, numbers, cell, pbc, initial_charges, initial_magmoms 

Initialize ...

Si-setup:
  name: Silicon
  id: b152d83ba7c91a8f3191da15c74e1ae7
  Z: 14
  valence: 4
  core: 10
  charge: 0.0
  file: /apps/Common/Core/GPAW-setups/0.9.20000/Si.LDA.gz
  compensation charges: gauss, rc=0.33, lmax=2
  cutoffs: 1.86(filt), 2.06(core),
  valence states:
                energy  radius
    3s(2.00)   -10.878   1.058
    3p(2.00)    -4.162   1.058
    *s          16.334   1.058
    *p          23.049   1.058
    *d           0.000   1.058

  Using partial waves for Si as LCAO basis

Reference energy: -15717.426366

Spin-paired calculation

Occupation numbers:
  Fermi-Dirac: width=0.1000 eV

Convergence criteria:
  Maximum total energy change: 0.0005 eV / electron
  Maximum integral of absolute density change: 0.0001 electrons
  Maximum integral of absolute eigenstate change: 4e-08 eV^2
  Maximum number of iterations: 333

Symmetries present (total): 24

  ( 1  0  0)  ( 1  0  0)  ( 1  0 -1)  ( 1  0 -1)  ( 1 -1  0)  ( 1 -1  0)
  ( 0  1  0)  ( 0  0  1)  ( 0  1 -1)  ( 0  0 -1)  ( 0 -1  1)  ( 0 -1  0)
  ( 0  0  1)  ( 0  1  0)  ( 0  0 -1)  ( 0  1 -1)  ( 0 -1  0)  ( 0 -1  1)

  ( 0  1  0)  ( 0  1  0)  ( 0  1 -1)  ( 0  1 -1)  ( 0  0  1)  ( 0  0  1)
  ( 1  0  0)  ( 0  0  1)  ( 1  0 -1)  ( 0  0 -1)  ( 1  0  0)  ( 0  1  0)
  ( 0  0  1)  ( 1  0  0)  ( 0  0 -1)  ( 1  0 -1)  ( 0  1  0)  ( 1  0  0)

  ( 0  0 -1)  ( 0  0 -1)  ( 0 -1  1)  ( 0 -1  1)  ( 0 -1  0)  ( 0 -1  0)
  ( 1  0 -1)  ( 0  1 -1)  ( 1 -1  0)  ( 0 -1  0)  ( 1 -1  0)  ( 0 -1  1)
  ( 0  1 -1)  ( 1  0 -1)  ( 0 -1  0)  ( 1 -1  0)  ( 0 -1  1)  ( 1 -1  0)

  (-1  1  0)  (-1  1  0)  (-1  0  1)  (-1  0  1)  (-1  0  0)  (-1  0  0)
  (-1  0  1)  (-1  0  0)  (-1  1  0)  (-1  0  0)  (-1  1  0)  (-1  0  1)
  (-1  0  0)  (-1  0  1)  (-1  0  0)  (-1  1  0)  (-1  0  1)  (-1  1  0)
Note: your k-points are not as symmetric as your crystal!

64 k-points: 4 x 4 x 4 Monkhorst-Pack grid
10 k-points in the irreducible part of the Brillouin zone
       k-points in crystal coordinates                weights
   0:     0.12500000    0.12500000   -0.12500000          6/64
   1:     0.12500000    0.12500000    0.12500000          2/64
   2:     0.37500000   -0.12500000   -0.12500000          6/64
   3:     0.37500000    0.12500000   -0.37500000         12/64
   4:     0.37500000    0.12500000   -0.12500000         12/64
   5:     0.37500000    0.12500000    0.12500000          6/64
   6:     0.37500000    0.37500000   -0.37500000          6/64
   7:     0.37500000    0.37500000   -0.12500000          6/64
   8:     0.37500000    0.37500000    0.12500000          6/64
   9:     0.37500000    0.37500000    0.37500000          2/64

Wave functions: Plane wave expansion
  Cutoff energy: 300.000 eV
  Number of coefficients (min, max): 466, 489
  Pulay-stress correction: 0.000000 eV/Ang^3 (de/decut=0.000000)
  Using FFTW library
  ScaLapack parameters: grid=1x1, blocksize=None
  Wavefunction extrapolation:
    Improved wavefunction reuse through dual PAW basis 

Eigensolver
   Davidson(niter=2, smin=None, normalize=True) 

Densities:
  Coarse grid: 16*16*16 grid
  Fine grid: 32*32*32 grid
  Total Charge: 0.000000 

Density mixing:
  Method: separate
  Backend: pulay
  Linear mixing parameter: 0.05
  Mixing with 5 old densities
  Damping of long wave oscillations: 50 

Hamiltonian:
  XC and Coulomb potentials evaluated on a 32*32*32 grid
  Using the LDA Exchange-Correlation functional
 

Memory estimate:
  Process memory now: 84.44 MiB
  Calculator: 3.64 MiB
    Density: 1.63 MiB
      Arrays: 0.81 MiB
      Localized functions: 0.50 MiB
      Mixer: 0.31 MiB
    Hamiltonian: 0.54 MiB
      Arrays: 0.53 MiB
      XC: 0.00 MiB
      Poisson: 0.00 MiB
      vbar: 0.01 MiB
    Wavefunctions: 1.47 MiB
      Arrays psit_nG: 0.60 MiB
      Eigensolver: 0.11 MiB
      Projections: 0.03 MiB
      Projectors: 0.51 MiB
      PW-descriptor: 0.23 MiB

Total number of cores used: 1

Number of atoms: 2
Number of atomic orbitals: 8
Number of bands in calculation: 8
Bands to converge: occupied states only
Number of valence electrons: 8

... initialized

Initializing position-dependent things.

Density initialized from atomic densities
Creating initial wave functions:
  8 bands from LCAO basis set

                    
                    
                    
                    
           Si       
                    
       Si           
                    
                    
                    
                    

Positions:
   0 Si     0.000000    0.000000    0.000000    ( 0.0000,  0.0000,  0.0000)
   1 Si     1.357500    1.357500    1.357500    ( 0.0000,  0.0000,  0.0000)

Unit cell:
           periodic     x           y           z      points  spacing
  1. axis:    yes    0.000000    2.715000    2.715000    16     0.1959
  2. axis:    yes    2.715000    0.000000    2.715000    16     0.1959
  3. axis:    yes    2.715000    2.715000    0.000000    16     0.1959

  Lengths:   3.839590   3.839590   3.839590
  Angles:   60.000000  60.000000  60.000000

Effective grid spacing dv^(1/3) = 0.2138

                     log10-error:    total        iterations:
           time      wfs    density  energy       fermi  poisson
iter:   1  08:24:41  +1.02   +inf   -12.049583    6             
iter:   2  08:24:41  -1.93  -0.80   -12.041501    2             
iter:   3  08:24:41  -1.04  -0.80   -12.468831    30            
iter:   4  08:24:42  -1.97  -0.63   -11.955589    26            
iter:   5  08:24:42  -2.95  -1.15   -11.918215    3             
iter:   6  08:24:42  -2.51  -1.29   -11.880589    4             
iter:   7  08:24:42  -4.38  -2.36   -11.880215    2             
iter:   8  08:24:42  -4.98  -2.86   -11.880259    2             
iter:   9  08:24:42  -6.35  -2.86   -11.880231    2             
iter:  10  08:24:42  -6.46  -3.10   -11.880218    2             
iter:  11  08:24:43  -8.27  -3.69   -11.880218    1             
iter:  12  08:24:43  -7.63  -3.73   -11.880217    1             
iter:  13  08:24:43  -8.96  -4.76   -11.880217    1             

Converged after 13 iterations.

Dipole moment: (-2.924222, -2.924222, -2.924222) |e|*Ang

Energy contributions relative to reference atoms: (reference = -15717.426366)

Kinetic:        +15.561224
Potential:      -13.706106
External:        +0.000000
XC:             -13.708283
Entropy (-ST):   -0.000881
Local:           -0.026611
--------------------------
Free energy:    -11.880657
Extrapolated:   -11.880217

Fermi level: 5.37179

Showing only first 2 kpts
 Kpt  Band  Eigenvalues  Occupancy
  0     2      3.81765    0.18750
  0     3      3.88497    0.18750
  0     4      7.22094    0.00000
  0     5      8.77821    0.00000

  1     2      4.84959    0.06216
  1     3      4.84959    0.06216
  1     4      7.56390    0.00000
  1     5      8.09362    0.00000


Gap: 1.085 eV
Transition (v -> c):
  (s=0, k=1, n=3, [0.12, 0.12, 0.12]) -> (s=0, k=7, n=4, [0.38, 0.38, -0.12])
Timing:                              incl.     excl.
-----------------------------------------------------------
Hamiltonian:                         0.038     0.000   0.0% |
 Atomic:                             0.031     0.001   0.0% |
  XC Correction:                     0.030     0.030   0.9% |
 Calculate atomic Hamiltonians:      0.001     0.001   0.0% |
 Communicate:                        0.000     0.000   0.0% |
 Initialize Hamiltonian:             0.000     0.000   0.0% |
 Poisson:                            0.000     0.000   0.0% |
 XC 3D grid:                         0.006     0.006   0.2% |
LCAO initialization:                 0.411     0.021   0.6% |
 LCAO eigensolver:                   0.074     0.001   0.0% |
  Calculate projections:             0.000     0.000   0.0% |
  DenseAtomicCorrection:             0.001     0.001   0.0% |
  Distribute overlap matrix:         0.000     0.000   0.0% |
  Orbital Layouts:                   0.002     0.002   0.0% |
  Potential matrix:                  0.048     0.048   1.4% ||
  Sum over cells:                    0.022     0.022   0.7% |
 LCAO to grid:                       0.192     0.192   5.8% |-|
 Set positions (LCAO WFS):           0.124     0.020   0.6% |
  Basic WFS set positions:           0.002     0.002   0.1% |
  Basis functions set positions:     0.000     0.000   0.0% |
  P tci:                             0.031     0.031   0.9% |
  ST tci:                            0.050     0.050   1.5% ||
  mktci:                             0.021     0.021   0.6% |
PWDescriptor:                        0.003     0.003   0.1% |
SCF-cycle:                           1.826     0.050   1.5% ||
 Davidson:                           1.122     0.285   8.6% |--|
  Apply H:                           0.121     0.108   3.3% ||
   HMM T:                            0.013     0.013   0.4% |
  Subspace diag:                     0.200     0.012   0.4% |
   calc_h_matrix:                    0.151     0.029   0.9% |
    Apply H:                         0.122     0.109   3.3% ||
     HMM T:                          0.013     0.013   0.4% |
   diagonalize:                      0.023     0.023   0.7% |
   rotate_psi:                       0.014     0.014   0.4% |
  calc. matrices:                    0.429     0.186   5.6% |-|
   Apply H:                          0.242     0.217   6.5% |--|
    HMM T:                           0.025     0.025   0.8% |
  diagonalize:                       0.065     0.065   2.0% ||
  rotate_psi:                        0.021     0.021   0.6% |
 Density:                            0.190     0.000   0.0% |
  Atomic density matrices:           0.018     0.018   0.5% |
  Mix:                               0.027     0.027   0.8% |
  Multipole moments:                 0.002     0.002   0.1% |
  Pseudo density:                    0.142     0.047   1.4% ||
   Symmetrize density:               0.095     0.095   2.9% ||
 Hamiltonian:                        0.456     0.005   0.1% |
  Atomic:                            0.367     0.009   0.3% |
   XC Correction:                    0.358     0.358  10.8% |---|
  Calculate atomic Hamiltonians:     0.011     0.011   0.3% |
  Communicate:                       0.000     0.000   0.0% |
  Poisson:                           0.002     0.002   0.1% |
  XC 3D grid:                        0.071     0.071   2.1% ||
 Orthonormalize:                     0.008     0.001   0.0% |
  calc_s_matrix:                     0.002     0.002   0.1% |
  inverse-cholesky:                  0.002     0.002   0.1% |
  projections:                       0.002     0.002   0.1% |
  rotate_psi_s:                      0.001     0.001   0.0% |
Set symmetry:                        0.020     0.020   0.6% |
Other:                               1.028     1.028  30.9% |-----------|
-----------------------------------------------------------
Total:                                         3.325 100.0%

Memory usage: 91.69 MiB
Date: Wed Mar  4 08:24:43 2020
