
  ___ ___ ___ _ _ _  
 |   |   |_  | | | | 
 | | | | | . | | | | 
 |__ |  _|___|_____|  19.8.1
 |___|_|             

User:   ericlin@hebbe02-1
Date:   Wed Mar  4 08:24:43 2020
Arch:   x86_64
Pid:    31860
Python: 3.7.2
gpaw:   /apps/Hebbe7/software/MPI/intel/2019.1.144-GCC-8.2.0-2.31.1/impi/2018.4.274/GPAW/19.8.1-Python-3.7.2/lib/python3.7/site-packages/gpaw
_gpaw:  /apps/Hebbe7/software/MPI/intel/2019.1.144-GCC-8.2.0-2.31.1/impi/2018.4.274/GPAW/19.8.1-Python-3.7.2/bin/
        gpaw-python
ase:    /apps/Hebbe7/software/MPI/intel/2019.1.144-GCC-8.2.0-2.31.1/impi/2018.4.274/ASE/3.18.0-Python-3.7.2/lib/python3.7/site-packages/ase (version 3.18.0)
numpy:  /apps/Hebbe7/software/MPI/intel/2019.1.144-GCC-8.2.0-2.31.1/impi/2018.4.274/SciPy-bundle/2019.03/lib/python3.7/site-packages/numpy (version 1.16.2)
scipy:  /apps/Hebbe7/software/MPI/intel/2019.1.144-GCC-8.2.0-2.31.1/impi/2018.4.274/SciPy-bundle/2019.03/lib/python3.7/site-packages/scipy (version 1.2.1)
libxc:  4.3.4
units:  Angstrom and eV
cores:  1

Input parameters:
  kpts: [8 8 8]
  mode: {ecut: 300.0,
         gammacentered: False,
         name: pw}

System changes: positions, numbers, cell, pbc, initial_charges, initial_magmoms 

Initialize ...

Si-setup:
  name: Silicon
  id: b152d83ba7c91a8f3191da15c74e1ae7
  Z: 14
  valence: 4
  core: 10
  charge: 0.0
  file: /apps/Common/Core/GPAW-setups/0.9.20000/Si.LDA.gz
  compensation charges: gauss, rc=0.33, lmax=2
  cutoffs: 1.86(filt), 2.06(core),
  valence states:
                energy  radius
    3s(2.00)   -10.878   1.058
    3p(2.00)    -4.162   1.058
    *s          16.334   1.058
    *p          23.049   1.058
    *d           0.000   1.058

  Using partial waves for Si as LCAO basis

Reference energy: -15717.426366

Spin-paired calculation

Occupation numbers:
  Fermi-Dirac: width=0.1000 eV

Convergence criteria:
  Maximum total energy change: 0.0005 eV / electron
  Maximum integral of absolute density change: 0.0001 electrons
  Maximum integral of absolute eigenstate change: 4e-08 eV^2
  Maximum number of iterations: 333

Symmetries present (total): 24

  ( 1  0  0)  ( 1  0  0)  ( 1  0 -1)  ( 1  0 -1)  ( 1 -1  0)  ( 1 -1  0)
  ( 0  1  0)  ( 0  0  1)  ( 0  1 -1)  ( 0  0 -1)  ( 0 -1  1)  ( 0 -1  0)
  ( 0  0  1)  ( 0  1  0)  ( 0  0 -1)  ( 0  1 -1)  ( 0 -1  0)  ( 0 -1  1)

  ( 0  1  0)  ( 0  1  0)  ( 0  1 -1)  ( 0  1 -1)  ( 0  0  1)  ( 0  0  1)
  ( 1  0  0)  ( 0  0  1)  ( 1  0 -1)  ( 0  0 -1)  ( 1  0  0)  ( 0  1  0)
  ( 0  0  1)  ( 1  0  0)  ( 0  0 -1)  ( 1  0 -1)  ( 0  1  0)  ( 1  0  0)

  ( 0  0 -1)  ( 0  0 -1)  ( 0 -1  1)  ( 0 -1  1)  ( 0 -1  0)  ( 0 -1  0)
  ( 1  0 -1)  ( 0  1 -1)  ( 1 -1  0)  ( 0 -1  0)  ( 1 -1  0)  ( 0 -1  1)
  ( 0  1 -1)  ( 1  0 -1)  ( 0 -1  0)  ( 1 -1  0)  ( 0 -1  1)  ( 1 -1  0)

  (-1  1  0)  (-1  1  0)  (-1  0  1)  (-1  0  1)  (-1  0  0)  (-1  0  0)
  (-1  0  1)  (-1  0  0)  (-1  1  0)  (-1  0  0)  (-1  1  0)  (-1  0  1)
  (-1  0  0)  (-1  0  1)  (-1  0  0)  (-1  1  0)  (-1  0  1)  (-1  1  0)
Note: your k-points are not as symmetric as your crystal!

512 k-points: 8 x 8 x 8 Monkhorst-Pack grid
60 k-points in the irreducible part of the Brillouin zone
       k-points in crystal coordinates                weights
   0:     0.06250000    0.06250000   -0.06250000          6/512
   1:     0.06250000    0.06250000    0.06250000          2/512
   2:     0.18750000   -0.06250000   -0.06250000          6/512
   3:     0.18750000    0.06250000   -0.18750000         12/512
   4:     0.18750000    0.06250000   -0.06250000         12/512
   5:     0.18750000    0.06250000    0.06250000          6/512
   6:     0.18750000    0.18750000   -0.18750000          6/512
   7:     0.18750000    0.18750000   -0.06250000          6/512
   8:     0.18750000    0.18750000    0.06250000          6/512
   9:     0.18750000    0.18750000    0.18750000          2/512
          ...
  59:     0.43750000    0.43750000    0.43750000          2/512

Wave functions: Plane wave expansion
  Cutoff energy: 300.000 eV
  Number of coefficients (min, max): 463, 495
  Pulay-stress correction: 0.000000 eV/Ang^3 (de/decut=0.000000)
  Using FFTW library
  ScaLapack parameters: grid=1x1, blocksize=None
  Wavefunction extrapolation:
    Improved wavefunction reuse through dual PAW basis 

Eigensolver
   Davidson(niter=2, smin=None, normalize=True) 

Densities:
  Coarse grid: 16*16*16 grid
  Fine grid: 32*32*32 grid
  Total Charge: 0.000000 

Density mixing:
  Method: separate
  Backend: pulay
  Linear mixing parameter: 0.05
  Mixing with 5 old densities
  Damping of long wave oscillations: 50 

Hamiltonian:
  XC and Coulomb potentials evaluated on a 32*32*32 grid
  Using the LDA Exchange-Correlation functional
 

Memory estimate:
  Process memory now: 91.70 MiB
  Calculator: 9.73 MiB
    Density: 1.63 MiB
      Arrays: 0.81 MiB
      Localized functions: 0.50 MiB
      Mixer: 0.31 MiB
    Hamiltonian: 0.54 MiB
      Arrays: 0.53 MiB
      XC: 0.00 MiB
      Poisson: 0.00 MiB
      vbar: 0.01 MiB
    Wavefunctions: 7.56 MiB
      Arrays psit_nG: 3.63 MiB
      Eigensolver: 0.11 MiB
      Projections: 0.19 MiB
      Projectors: 3.03 MiB
      PW-descriptor: 0.61 MiB

Total number of cores used: 1

Number of atoms: 2
Number of atomic orbitals: 8
Number of bands in calculation: 8
Bands to converge: occupied states only
Number of valence electrons: 8

... initialized

Initializing position-dependent things.

Density initialized from atomic densities
Creating initial wave functions:
  8 bands from LCAO basis set

                    
                    
                    
                    
           Si       
                    
       Si           
                    
                    
                    
                    

Positions:
   0 Si     0.000000    0.000000    0.000000    ( 0.0000,  0.0000,  0.0000)
   1 Si     1.357500    1.357500    1.357500    ( 0.0000,  0.0000,  0.0000)

Unit cell:
           periodic     x           y           z      points  spacing
  1. axis:    yes    0.000000    2.715000    2.715000    16     0.1959
  2. axis:    yes    2.715000    0.000000    2.715000    16     0.1959
  3. axis:    yes    2.715000    2.715000    0.000000    16     0.1959

  Lengths:   3.839590   3.839590   3.839590
  Angles:   60.000000  60.000000  60.000000

Effective grid spacing dv^(1/3) = 0.2138

                     log10-error:    total        iterations:
           time      wfs    density  energy       fermi  poisson
iter:   1  08:24:46  +1.02   +inf   -12.051917    5             
iter:   2  08:24:46  -1.93  -0.80   -12.043888    2             
iter:   3  08:24:47  -1.05  -0.80   -12.472553    30            
iter:   4  08:24:48  -1.98  -0.63   -11.958628    27            
iter:   5  08:24:48  -2.95  -1.15   -11.920792    3             
iter:   6  08:24:49  -2.51  -1.29   -11.883584    4             
iter:   7  08:24:49  -4.39  -2.37   -11.883209    2             
iter:   8  08:24:50  -4.98  -2.85   -11.883252    2             
iter:   9  08:24:51  -6.37  -2.87   -11.883225    2             
iter:  10  08:24:51  -6.47  -3.11   -11.883212    2             
iter:  11  08:24:52  -8.31  -3.70   -11.883212    1             
iter:  12  08:24:52  -7.64  -3.73   -11.883211    2             
iter:  13  08:24:53  -8.97  -4.76   -11.883211    1             

Converged after 13 iterations.

Dipole moment: (-2.925357, -2.925357, -2.925357) |e|*Ang

Energy contributions relative to reference atoms: (reference = -15717.426366)

Kinetic:        +15.563043
Potential:      -13.715230
External:        +0.000000
XC:             -13.703842
Entropy (-ST):   -0.001045
Local:           -0.026659
--------------------------
Free energy:    -11.883733
Extrapolated:   -11.883211

Fermi level: 5.37508

Showing only first 2 kpts
 Kpt  Band  Eigenvalues  Occupancy
  0     2      4.61634    0.02343
  0     3      4.78239    0.02338
  0     4      7.48875    0.00000
  0     5      8.09871    0.00000

  1     2      5.05299    0.00751
  1     3      5.05299    0.00751
  1     4      7.71487    0.00000
  1     5      7.79267    0.00000


Gap: 0.715 eV
Transition (v -> c):
  (s=0, k=1, n=3, [0.06, 0.06, 0.06]) -> (s=0, k=55, n=4, [0.44, 0.44, -0.06])
Timing:                              incl.     excl.
-----------------------------------------------------------
Hamiltonian:                         0.039     0.000   0.0% |
 Atomic:                             0.031     0.001   0.0% |
  XC Correction:                     0.030     0.030   0.3% |
 Calculate atomic Hamiltonians:      0.001     0.001   0.0% |
 Communicate:                        0.000     0.000   0.0% |
 Initialize Hamiltonian:             0.000     0.000   0.0% |
 Poisson:                            0.000     0.000   0.0% |
 XC 3D grid:                         0.006     0.006   0.1% |
LCAO initialization:                 1.549     0.022   0.2% |
 LCAO eigensolver:                   0.196     0.002   0.0% |
  Calculate projections:             0.002     0.002   0.0% |
  DenseAtomicCorrection:             0.007     0.007   0.1% |
  Distribute overlap matrix:         0.001     0.001   0.0% |
  Orbital Layouts:                   0.005     0.005   0.1% |
  Potential matrix:                  0.047     0.047   0.5% |
  Sum over cells:                    0.132     0.132   1.3% ||
 LCAO to grid:                       0.959     0.959   9.4% |---|
 Set positions (LCAO WFS):           0.371     0.056   0.6% |
  Basic WFS set positions:           0.002     0.002   0.0% |
  Basis functions set positions:     0.000     0.000   0.0% |
  P tci:                             0.118     0.118   1.2% |
  ST tci:                            0.174     0.174   1.7% ||
  mktci:                             0.021     0.021   0.2% |
PWDescriptor:                        0.011     0.011   0.1% |
SCF-cycle:                           7.457     0.270   2.7% ||
 Davidson:                           6.284     1.705  16.8% |------|
  Apply H:                           0.630     0.556   5.5% |-|
   HMM T:                            0.074     0.074   0.7% |
  Subspace diag:                     1.088     0.071   0.7% |
   calc_h_matrix:                    0.808     0.172   1.7% ||
    Apply H:                         0.636     0.556   5.5% |-|
     HMM T:                          0.080     0.080   0.8% |
   diagonalize:                      0.125     0.125   1.2% |
   rotate_psi:                       0.084     0.084   0.8% |
  calc. matrices:                    2.357     1.105  10.9% |---|
   Apply H:                          1.252     1.105  10.9% |---|
    HMM T:                           0.148     0.148   1.5% ||
  diagonalize:                       0.379     0.379   3.7% ||
  rotate_psi:                        0.125     0.125   1.2% |
 Density:                            0.400     0.000   0.0% |
  Atomic density matrices:           0.043     0.043   0.4% |
  Mix:                               0.029     0.029   0.3% |
  Multipole moments:                 0.002     0.002   0.0% |
  Pseudo density:                    0.326     0.231   2.3% ||
   Symmetrize density:               0.095     0.095   0.9% |
 Hamiltonian:                        0.459     0.005   0.0% |
  Atomic:                            0.369     0.010   0.1% |
   XC Correction:                    0.359     0.359   3.5% ||
  Calculate atomic Hamiltonians:     0.011     0.011   0.1% |
  Communicate:                       0.000     0.000   0.0% |
  Poisson:                           0.002     0.002   0.0% |
  XC 3D grid:                        0.071     0.071   0.7% |
 Orthonormalize:                     0.044     0.005   0.1% |
  calc_s_matrix:                     0.010     0.010   0.1% |
  inverse-cholesky:                  0.012     0.012   0.1% |
  projections:                       0.014     0.014   0.1% |
  rotate_psi_s:                      0.003     0.003   0.0% |
Set symmetry:                        0.055     0.055   0.5% |
Other:                               1.061     1.061  10.4% |---|
-----------------------------------------------------------
Total:                                        10.172 100.0%

Memory usage: 102.69 MiB
Date: Wed Mar  4 08:24:53 2020
