8
Lattice="4.011228890000002 0.0 0.0 0.0 4.01294094 0.0 0.0 0.0 5.3277943699999994" Properties=species:S:1:pos:R:3:tags:I:1:forces:R:3 energy=-7.2812016913725355 dipole="0.001135123565725167 1.7921646381828162e-05 -0.003001938699082638" pbc="F F F"
Na       3.14462624       0.09064726       3.87653896        0      -0.00176466      -0.00578353      -0.00533874 
Na       2.97784383      -0.00000000       0.61480349        1       0.00411804      -0.00660113       0.00565615 
Na       3.39768219       3.26171444       5.13441830        2      -0.00279381       0.00294998       0.00351080 
Na       4.01122889       2.99475536       1.94728324        3      -0.00158061      -0.00060613      -0.00117587 
Na       0.33334018       1.46034133       5.32779437        4       0.00698163       0.00258620       0.00177066 
Na       1.17541774       2.97094445       0.00000000        5      -0.00297806       0.00460865       0.00559436 
Na       0.75692007       4.01294094       3.06597672        6      -0.00193059       0.00005476      -0.00362620 
Na       0.00000000       0.60313226       2.20949609        7       0.00062286       0.00149923      -0.00420014 
