LAMMPS data file via write_data, version 7 Aug 2019, timestep = 28000

9000 atoms
1 atom types

-1.2454929418246455e-04 5.7106124549294186e+01 xlo xhi
-9.3411970636848420e-05 4.2829593411970642e+01 ylo yhi
-9.3411970636848420e-05 4.2829593411970642e+01 zlo zhi

Masses

1 56

Atoms # atomic

2 1 1.5045113266566097e+00 1.4519689724619498e+00 1.3424710057812108e+00 0 0 0
483 1 2.8978746736334768e+00 2.8465818319326663e+00 2.8460915286789779e+00 0 0 0
3 1 6.6344658440975313e-02 4.6950457748238653e-02 2.7941964077594323e+00 0 0 0
452 1 4.3037404203393237e+00 1.5080088862777015e+00 1.3974139415073965e+00 0 0 0
933 1 5.7894204724193914e+00 2.8188772985244754e+00 2.6853705504918488e+00 0 0 0
902 1 7.1679700051928359e+00 1.2975246961987004e+00 1.2950768228135359e+00 0 0 0
1383 1 8.5560915595566751e+00 2.8186124409217870e+00 2.6850821074967013e+00 0 0 0
1353 1 8.3920193734453257e+00 4.3918791962778536e-02 2.9091838286963299e+00 0 0 0
1352 1 1.0068896928060324e+01 1.4442854238482714e+00 1.3592173232530167e+00 0 0 0
1833 1 1.1466817701800709e+01 2.7649542984975524e+00 2.7592991061768104e+00 0 0 0
1803 1 1.1394925641019219e+01 9.6482565085275647e-03 2.8563538487289941e+00 0 0 0
1802 1 1.2939117879830949e+01 1.5235953123109200e+00 1.3805675571746485e+00 0 0 0
2252 1 1.5755371195554144e+01 1.4648078427003099e+00 1.3672862652122113e+00 0 0 0
2283 1 1.4317504454603478e+01 2.8996605953277044e+00 2.8694025011551494e+00 0 0 0
2253 1 1.4295480380095709e+01 6.8254410061810433e-02 2.8488543151845414e+00 0 0 0
2702 1 1.8645051218814622e+01 1.2792781698380709e+00 1.4067047914646731e+00 0 0 0
2733 1 1.7086607734450229e+01 2.7835331921960496e+00 2.8517094543501202e+00 0 0 0
2731 1 1.7258384500105574e+01 2.8647099606768358e+00 1.1729430117861991e-01 0 0 0
3183 1 2.0010198470497350e+01 2.8188314727260475e+00 2.7171654637364009e+00 0 0 0
3152 1 2.1412708696611659e+01 1.2852882721220737e+00 1.2974363029719167e+00 0 0 0
3153 1 2.0010760899952125e+01 1.5070119513321701e-02 2.8348740478681731e+00 0 0 0
3602 1 2.4332437164709145e+01 1.4736626045154022e+00 1.4029718739054349e+00 0 0 0
3633 1 2.2871483455195570e+01 2.8279888869950462e+00 2.6783754512265947e+00 0 0 0
3601 1 2.2999675550850515e+01 4.4292023937025110e-02 1.2086267730251386e-01 0 0 0
4052 1 2.7221657885051282e+01 1.4226602691342018e+00 1.4392655297833843e+00 0 0 0
4083 1 2.5662139920693924e+01 2.9503952550255383e+00 2.7015192681373668e+00 0 0 0
4533 1 2.8527399382105113e+01 2.9502229029448568e+00 2.6908840890115990e+00 0 0 0
32 1 1.3827047383086688e+00 4.2921692161274478e+00 1.3712139009907740e+00 0 0 0
513 1 2.9082642783621369e+00 5.5885292831809634e+00 2.6724431638951911e+00 0 0 0
482 1 4.3265968502459282e+00 4.2293555853517804e+00 1.2470744683353072e+00 0 0 0
963 1 5.6353588763041378e+00 5.6699098690653713e+00 2.7563685900017898e+00 0 0 0
932 1 7.2660622661292100e+00 4.2118873845868885e+00 1.2040234464517210e+00 0 0 0
1413 1 8.6673381549535122e+00 5.7112281269909015e+00 2.7138855440771690e+00 0 0 0
1382 1 9.8902148327311199e+00 4.2323807921717638e+00 1.4120335090038643e+00 0 0 0
1863 1 1.1395776619192183e+01 5.7592476617380663e+00 2.6526159405324847e+00 0 0 0
1832 1 1.2774929793335749e+01 4.2976611105683036e+00 1.3316910850828261e+00 0 0 0
2282 1 1.5858343240628633e+01 4.2860437107092775e+00 1.4194702490856519e+00 0 0 0
2313 1 1.4298788451103498e+01 5.6860772084818123e+00 2.7108221873075484e+00 0 0 0
2311 1 1.4335739933435946e+01 5.8173331253739340e+00 6.6683016289953781e-03 0 0 0
2732 1 1.8576753744622618e+01 4.3433854901941551e+00 1.3528501022420314e+00 0 0 0
2763 1 1.7112962848853186e+01 5.8884398966161546e+00 2.8255379012040591e+00 0 0 0
3213 1 2.0108762361639648e+01 5.6744926747599278e+00 2.7686876941406431e+00 0 0 0
3182 1 2.1454954436142007e+01 4.3290644281035160e+00 1.4452911485501430e+00 0 0 0
3632 1 2.4256913345060738e+01 4.2837420733735510e+00 1.2498920983920345e+00 0 0 0
3663 1 2.2980785103789071e+01 5.7291609158984862e+00 2.8436051881748456e+00 0 0 0
3661 1 2.2867769273509218e+01 5.8396965417092419e+00 8.5590157358542626e-03 0 0 0
4082 1 2.7152675684203409e+01 4.3813323231598185e+00 1.2728723656151926e+00 0 0 0
4113 1 2.5635194518339294e+01 5.6796726892772424e+00 2.7887473091565482e+00 0 0 0
4563 1 2.8394643804131363e+01 5.7798547585360582e+00 2.8555643606788754e+00 0 0 0
62 1 1.5533784447738577e+00 7.1784429146886328e+00 1.2400854020150847e+00 0 0 0
543 1 2.7636626096651873e+00 8.7695682465885785e+00 2.6713603546027325e+00 0 0 0
93 1 4.0958024716996631e-02 8.5009751579178943e+00 2.8205656281342448e+00 0 0 0
512 1 4.1856439589291439e+00 7.2048944008830977e+00 1.3124726999754819e+00 0 0 0
993 1 5.6431309511425578e+00 8.6512647947154058e+00 2.6442887791280403e+00 0 0 0
962 1 7.1147070114951090e+00 7.1634549621044945e+00 1.3068548686023074e+00 0 0 0
1443 1 8.5013628990794388e+00 8.6783739919595888e+00 2.7131721963695092e+00 0 0 0
1412 1 9.9719679132014427e+00 7.2294344937489194e+00 1.2718695828533582e+00 0 0 0
1893 1 1.1517566335857166e+01 8.6266432127640282e+00 2.6577998063562909e+00 0 0 0
1862 1 1.2884708526322164e+01 7.2199066181987321e+00 1.3145166146961562e+00 0 0 0
2343 1 1.4302556600972933e+01 8.4933480041155622e+00 2.6527984594165113e+00 0 0 0
2312 1 1.5815217536147852e+01 7.2672503175861296e+00 1.4123227330339059e+00 0 0 0
2762 1 1.8523136335223555e+01 7.1220035291143375e+00 1.4025817913265510e+00 0 0 0
2793 1 1.7223146211578321e+01 8.5451528912497619e+00 2.8964286400109813e+00 0 0 0
3212 1 2.1477535797291978e+01 7.1052742117152317e+00 1.3982614792825314e+00 0 0 0
3243 1 1.9996365647110260e+01 8.5313078905830384e+00 2.7565354552248014e+00 0 0 0
3662 1 2.4379656983052303e+01 7.2267176202005770e+00 1.4018503212283921e+00 0 0 0
3693 1 2.2792156126937719e+01 8.5706882407057527e+00 2.7219170085575874e+00 0 0 0
4112 1 2.7058306293767188e+01 7.2641601857854425e+00 1.4080513893731159e+00 0 0 0
4143 1 2.5530293820841433e+01 8.6404820889181266e+00 2.8481254330795460e+00 0 0 0
4593 1 2.8541182099056108e+01 8.7239888495849858e+00 2.7823208253657770e+00 0 0 0
92 1 1.4380682750820264e+00 9.9616251725185609e+00 1.2865977236571686e+00 0 0 0
573 1 2.8454226852729807e+00 1.1491455651572227e+01 2.6906957041714921e+00 0 0 0
122 1 1.3713167008134102e+00 1.2978297607269923e+01 1.3731585030398832e+00 0 0 0
542 1 4.2796035010342344e+00 1.0136857655382819e+01 1.1218376873813898e+00 0 0 0
1023 1 5.5530838670624885e+00 1.1630819841105120e+01 2.7464852132960216e+00 0 0 0
572 1 4.2206484923109571e+00 1.2945800130020134e+01 1.2700136127898203e+00 0 0 0
992 1 6.9931725073496400e+00 1.0069306873032470e+01 1.3585374013537901e+00 0 0 0
1473 1 8.6080230595488310e+00 1.1467820507536647e+01 2.8882963984902967e+00 0 0 0
1022 1 7.1505135414889542e+00 1.2713733701138976e+01 1.3421081544593620e+00 0 0 0
1442 1 1.0130520769665253e+01 1.0038076627917231e+01 1.1990615846598673e+00 0 0 0
1923 1 1.1365512794109586e+01 1.1433894126588747e+01 2.5892567290358737e+00 0 0 0
1472 1 9.9312544052609990e+00 1.2846548745586635e+01 1.2840474263853414e+00 0 0 0
2342 1 1.5796644781879547e+01 1.0022039009573925e+01 1.3646110193605885e+00 0 0 0
1892 1 1.2834142919503682e+01 9.9026621428126287e+00 1.2045975421454014e+00 0 0 0
1922 1 1.2959286590915067e+01 1.2826661857282414e+01 1.4914831305351588e+00 0 0 0
2373 1 1.4357757807374373e+01 1.1413946247078551e+01 2.8401283928555712e+00 0 0 0
2372 1 1.5678462566616313e+01 1.2841867695167364e+01 1.4474742190664314e+00 0 0 0
2792 1 1.8534438512144437e+01 9.9144207877157804e+00 1.3339420391760273e+00 0 0 0
2823 1 1.7195084872763552e+01 1.1509085806777174e+01 2.7926471187233752e+00 0 0 0
2822 1 1.8616481423017252e+01 1.2816395565820208e+01 1.3478746920591727e+00 0 0 0
2821 1 1.7078945377833215e+01 1.1446387745360049e+01 3.2916177843219539e-03 0 0 0
3242 1 2.1408798350360684e+01 9.9773158695666737e+00 1.3643710886095561e+00 0 0 0
3273 1 1.9828998010034759e+01 1.1442500371751184e+01 2.8441432363650980e+00 0 0 0
3272 1 2.1301428564330301e+01 1.2913707961857586e+01 1.3317885009628025e+00 0 0 0
3692 1 2.4285405261274875e+01 1.0037834592043831e+01 1.3006887916685101e+00 0 0 0
3723 1 2.2845800676683634e+01 1.1467710348186582e+01 2.8152005330597052e+00 0 0 0
3722 1 2.4104834412837043e+01 1.2761056190124354e+01 1.3158205999925181e+00 0 0 0
4142 1 2.7164807394781384e+01 1.0047425876794087e+01 1.4060768904700676e+00 0 0 0
4173 1 2.5588693547387756e+01 1.1462051192018992e+01 2.7701962660348758e+00 0 0 0
4172 1 2.7048053250799558e+01 1.2809186024875649e+01 1.3396372850321534e+00 0 0 0
4623 1 2.8536744517971176e+01 1.1529607942770243e+01 2.8167545372648202e+00 0 0 0
603 1 2.9485550954330542e+00 1.4367757504317174e+01 2.7930108771530633e+00 0 0 0
152 1 1.5391578490346720e+00 1.5940748426466042e+01 1.3166344061665542e+00 0 0 0
151 1 9.5500889180536619e-02 1.4226072177425095e+01 2.5602337421018546e-02 0 0 0
153 1 5.8111607086198822e-02 1.4461569914134810e+01 2.6800362875111969e+00 0 0 0
1053 1 5.7268407548154636e+00 1.4240861006326771e+01 2.7395937394813492e+00 0 0 0
602 1 4.3246130083100098e+00 1.5673239483723291e+01 1.2844293932301489e+00 0 0 0
1503 1 8.5015421850800177e+00 1.4329203993454181e+01 2.6996964855282162e+00 0 0 0
1052 1 7.1730913885997509e+00 1.5661038054199057e+01 1.3251640796525535e+00 0 0 0
1501 1 8.6039324391801468e+00 1.4244834945097873e+01 4.3256138912505585e-02 0 0 0
1953 1 1.1571896493211407e+01 1.4358865254812549e+01 2.5614087797754568e+00 0 0 0
1502 1 1.0122784127815200e+01 1.5724317100114700e+01 1.3297526138605578e+00 0 0 0
1952 1 1.2777950935492658e+01 1.5686768613486874e+01 1.1428837527893196e+00 0 0 0
2403 1 1.4337723416924661e+01 1.4419681873221869e+01 2.8349694732169941e+00 0 0 0
2402 1 1.5690616646996499e+01 1.5704678055605235e+01 1.3290180734588033e+00 0 0 0
2853 1 1.7244002596210969e+01 1.4314518608370554e+01 2.9448722015138609e+00 0 0 0
2852 1 1.8545189113317338e+01 1.5659924162527568e+01 1.3560383187291516e+00 0 0 0
3303 1 1.9945533016430250e+01 1.4346076481533895e+01 2.7157366848476276e+00 0 0 0
3302 1 2.1382681494939149e+01 1.5821434923689797e+01 1.2670076898795473e+00 0 0 0
3753 1 2.2673760642607427e+01 1.4471198282644810e+01 2.8227760803150201e+00 0 0 0
3752 1 2.4273444249337917e+01 1.5663591072958138e+01 1.3635221193203291e+00 0 0 0
4203 1 2.5614701140856312e+01 1.4340472962135223e+01 2.7969781461247045e+00 0 0 0
4202 1 2.7169143147415266e+01 1.5826571607508704e+01 1.3184962086812422e+00 0 0 0
4653 1 2.8472627702854833e+01 1.4407961716135985e+01 2.9343448614202705e+00 0 0 0
182 1 1.4231217491817985e+00 1.8636455445650828e+01 1.2089874245779209e+00 0 0 0
633 1 2.8136089126419965e+00 1.7314831702310190e+01 2.9010463682973291e+00 0 0 0
632 1 4.3809801100268304e+00 1.8494394442752860e+01 1.4039761824973724e+00 0 0 0
1083 1 5.7217105996082340e+00 1.7110472152401321e+01 2.7262153378756100e+00 0 0 0
1082 1 7.1713326801801864e+00 1.8577056400374762e+01 1.5090032864869782e+00 0 0 0
1533 1 8.5925122195948465e+00 1.7000243083786525e+01 2.8025203710199049e+00 0 0 0
1531 1 8.5511719108991393e+00 1.7197742271121950e+01 1.0916484244674440e-03 0 0 0
1532 1 9.9340439975295656e+00 1.8636330732336372e+01 1.3825048397076594e+00 0 0 0
1983 1 1.1431154891454456e+01 1.7122209716293099e+01 2.7689857425395838e+00 0 0 0
1982 1 1.2911536729012258e+01 1.8545253427178388e+01 1.3370854826917824e+00 0 0 0
2433 1 1.4412328440222570e+01 1.7131742429884461e+01 2.7542588069071554e+00 0 0 0
2432 1 1.5779795536184311e+01 1.8458186758398025e+01 1.4278064282797156e+00 0 0 0
2882 1 1.8598897892860574e+01 1.8595973350181076e+01 1.3943387508363194e+00 0 0 0
2883 1 1.7273969259129959e+01 1.7171403262631735e+01 2.8382636663567080e+00 0 0 0
3333 1 2.0097707861372317e+01 1.7186658518306089e+01 2.8504003989043367e+00 0 0 0
3361 1 2.1410735922465118e+01 1.8572004800983581e+01 1.3588539844190517e+00 0 0 0
3332 1 2.2754426353109746e+01 1.7140424251692231e+01 2.7924908064676468e+00 0 0 0
3782 1 2.4094983589369154e+01 1.8868632950073508e+01 1.1202308129919012e+00 0 0 0
4233 1 2.5307906846046727e+01 1.7526891240601994e+01 2.5286861918568833e+00 0 0 0
4232 1 2.7232342504206628e+01 1.8569649044010447e+01 1.3212901171918698e+00 0 0 0
4231 1 2.5618639314669956e+01 1.7079294576496750e+01 2.6349367715220156e-02 0 0 0
212 1 1.5647488091689035e+00 2.1395695399699093e+01 1.4037478280377385e+00 0 0 0
693 1 2.8744650927035127e+00 2.2839576019248319e+01 2.7115349911729116e+00 0 0 0
663 1 2.9142233090057994e+00 1.9931046984759860e+01 2.8495259724180815e+00 0 0 0
213 1 2.3596497165853113e-02 2.0047207968759885e+01 2.6832936757243933e+00 0 0 0
243 1 1.2287831366279116e-01 2.2885479073861898e+01 2.6398804645393454e+00 0 0 0
1113 1 5.8642565276582319e+00 1.9997711328284506e+01 2.7954539514683998e+00 0 0 0
662 1 4.3124921570432972e+00 2.1468534551632825e+01 1.4757666643458469e+00 0 0 0
1143 1 5.8060129768629745e+00 2.2806241693301178e+01 2.8353029914612300e+00 0 0 0
1563 1 8.5708577885547648e+00 2.0011793844393427e+01 2.9351671763766545e+00 0 0 0
1112 1 7.2369909321560559e+00 2.1414628764194187e+01 1.3489763010889744e+00 0 0 0
1593 1 8.6521692871109170e+00 2.2716371579519276e+01 2.7000562093060081e+00 0 0 0
1562 1 1.0055888098429071e+01 2.1267489654049808e+01 1.2741596030165458e+00 0 0 0
2043 1 1.1646216546558422e+01 2.2676046453391443e+01 2.7174991255992631e+00 0 0 0
2013 1 1.1519805497243302e+01 2.0069892952421359e+01 2.6641174135393388e+00 0 0 0
2012 1 1.3044312209079186e+01 2.1379240371716648e+01 1.3976376345709256e+00 0 0 0
2463 1 1.4448626386845707e+01 2.0007156045212675e+01 2.9653587934425483e+00 0 0 0
2493 1 1.4433507125109113e+01 2.2747697219413087e+01 2.8282383066963233e+00 0 0 0
2461 1 1.4233813411635472e+01 1.9918013738290586e+01 9.4759470795102232e-02 0 0 0
2491 1 1.5885444607266631e+01 2.1399700951524011e+01 1.4512405279548368e+00 0 0 0
2462 1 1.7200103835624304e+01 2.0062916312702455e+01 2.7785475263868586e+00 0 0 0
2912 1 1.8629947387854433e+01 2.1498342308506754e+01 1.3846356470055552e+00 0 0 0
2943 1 1.7189033283891721e+01 2.2933729160088845e+01 2.8544338838491834e+00 0 0 0
2941 1 1.7185643494400225e+01 2.2858141847882749e+01 1.1267007011921894e-01 0 0 0
3363 1 1.9956836257640813e+01 2.0112469245686516e+01 2.7121857063281807e+00 0 0 0
3362 1 2.1282687885970930e+01 2.1515606392193952e+01 1.3128578799412627e+00 0 0 0
3393 1 1.9871083261794787e+01 2.2951278726067930e+01 2.9857298595728405e+00 0 0 0
3812 1 2.4200126165324868e+01 2.1600889381112207e+01 1.2380744339864986e+00 0 0 0
3813 1 2.2658797196599679e+01 2.0274582466331605e+01 2.6435296735468081e+00 0 0 0
3843 1 2.2770046165424098e+01 2.2937750620755654e+01 2.7582236783694873e+00 0 0 0
4263 1 2.5645216784910655e+01 2.0032309156893877e+01 2.6425346675081123e+00 0 0 0
4262 1 2.7073940654217928e+01 2.1465773355924973e+01 1.3013511344178501e+00 0 0 0
4293 1 2.5578971943699074e+01 2.2895390987900015e+01 2.7549596080120207e+00 0 0 0
4743 1 2.8483400314870185e+01 2.2899832895466744e+01 2.6505210176343974e+00 0 0 0
242 1 1.4880840802150184e+00 2.4341913563895396e+01 1.2602506836842087e+00 0 0 0
723 1 2.8470378841156534e+00 2.5762707159656053e+01 2.7447238533714793e+00 0 0 0
692 1 4.2649567225571650e+00 2.4305692150137695e+01 1.3125978345590821e+00 0 0 0
1173 1 5.7700817566961460e+00 2.5634057405766793e+01 2.7905586037574612e+00 0 0 0
1142 1 7.1604075189109251e+00 2.4109285323956204e+01 1.3136952098842563e+00 0 0 0
1623 1 8.6168943931739133e+00 2.5552902627566166e+01 2.6879916162507400e+00 0 0 0
1592 1 1.0197647870930496e+01 2.4216499197557933e+01 1.3984823807237967e+00 0 0 0
2073 1 1.1557898340715912e+01 2.5680401037101408e+01 2.7609991416794610e+00 0 0 0
2042 1 1.3136112480192253e+01 2.4158960652931864e+01 1.3495953190508732e+00 0 0 0
2523 1 1.4223300742717456e+01 2.5686334820933183e+01 2.7245097561331000e+00 0 0 0
2492 1 1.5694020882695973e+01 2.4246605809211633e+01 1.4268593750535221e+00 0 0 0
2942 1 1.8575708030634008e+01 2.4361259783158079e+01 1.4002596822811133e+00 0 0 0
2973 1 1.7173064447012955e+01 2.5744989797803466e+01 2.8420684095502415e+00 0 0 0
2966 1 1.7018513697214367e+01 2.5745403160811435e+01 8.0726787717036938e-02 0 0 1
3392 1 2.1358192009229441e+01 2.4227605006828483e+01 1.3726434996157262e+00 0 0 0
3423 1 1.9810469973673975e+01 2.5761531812042904e+01 2.9195393746931906e+00 0 0 0
3421 1 2.0020508623914434e+01 2.5759435063755380e+01 1.6135909401733561e-04 0 0 0
3842 1 2.4144709803247746e+01 2.4332610428227941e+01 1.3957215657123112e+00 0 0 0
3873 1 2.2678220177500020e+01 2.5701631743238877e+01 2.6671713459506150e+00 0 0 0
3871 1 2.2790356649660634e+01 2.5693534677475650e+01 4.3171188535726775e-02 0 0 0
4292 1 2.7055936564789494e+01 2.4284171053479255e+01 1.2701373643387794e+00 0 0 0
4323 1 2.5580762127724043e+01 2.5648817140727623e+01 2.8045968536564008e+00 0 0 0
4773 1 2.8482237608073902e+01 2.5844534340286017e+01 2.8432823663224878e+00 0 0 0
272 1 1.3490293337052883e+00 2.7123728595129283e+01 1.3084688156835120e+00 0 0 0
753 1 2.9810273815035058e+00 2.8461386491047946e+01 2.7761006404171464e+00 0 0 0
722 1 4.2782596425271429e+00 2.6976390941724297e+01 1.2654247008998025e+00 0 0 0
1203 1 5.7027298698091826e+00 2.8451201741091005e+01 2.7528494503870360e+00 0 0 0
1172 1 7.1836911712855303e+00 2.6969034599187477e+01 1.4044897841232289e+00 0 0 0
1653 1 8.6290868622506576e+00 2.8378665824488767e+01 2.7409010748370393e+00 0 0 0
1622 1 9.9497116096082543e+00 2.7014294849973190e+01 1.2595275294478261e+00 0 0 0
2103 1 1.1451707796482459e+01 2.8478947810945414e+01 2.7095918152457932e+00 0 0 0
2071 1 1.2675975017749680e+01 2.7092623853330227e+01 1.3647950769721016e+00 0 0 0
2101 1 1.1433377461938177e+01 2.8527587788868313e+01 8.7986826094657578e-03 0 0 0
2072 1 1.4182656089572950e+01 2.8608033625226678e+01 2.7628301020770514e+00 0 0 0
2522 1 1.5671706209560313e+01 2.7137887056209475e+01 1.3759605143517244e+00 0 0 0
2972 1 1.8643028257997788e+01 2.7196817744783054e+01 1.3977569926765430e+00 0 0 0
3003 1 1.7158014554098507e+01 2.8710323730494995e+01 2.7368434136886792e+00 0 0 0
3453 1 1.9929526915380880e+01 2.8661179611901133e+01 2.8436276303145598e+00 0 0 0
3422 1 2.1354389448779639e+01 2.7257034051578401e+01 1.3321252179605112e+00 0 0 0
3872 1 2.4173020905479131e+01 2.7172955036802296e+01 1.4873437125455933e+00 0 0 0
3903 1 2.2726106677286904e+01 2.8593979224929921e+01 2.8233303328782213e+00 0 0 0
4322 1 2.6904347044746771e+01 2.7156712658862631e+01 1.4236758997448582e+00 0 0 0
4353 1 2.5673964050580619e+01 2.8438163096567312e+01 2.9251594303154707e+00 0 0 0
4351 1 2.5645864495642183e+01 2.8572776463298286e+01 4.8270269016447813e-03 0 0 0
4803 1 2.8521601615527246e+01 2.8470341608120307e+01 2.8039330289693045e+00 0 0 0
302 1 1.4322759197893158e+00 2.9926786954921575e+01 1.3549323371140849e+00 0 0 0
783 1 2.8403905870573927e+00 3.1166354466526144e+01 2.9354628720852101e+00 0 0 0
332 1 1.4650296504921543e+00 3.2795510826249753e+01 1.3512571925798462e+00 0 0 0
752 1 4.2564680675507516e+00 2.9975358486500614e+01 1.3289836309419787e+00 0 0 0
1233 1 5.7520141437264138e+00 3.1360287348803315e+01 2.7871310157425073e+00 0 0 0
782 1 4.1303558695126430e+00 3.2720817231546548e+01 1.3779785804121356e+00 0 0 0
1202 1 7.1032571482091722e+00 2.9901591212182570e+01 1.4050633529756742e+00 0 0 0
1683 1 8.5755053749762471e+00 3.1352008448315200e+01 2.8721449404226109e+00 0 0 0
1232 1 6.9898563890627079e+00 3.2715013426064942e+01 1.3310895400280092e+00 0 0 0
1681 1 8.5243827898603346e+00 3.1334985912592860e+01 3.5689073939032118e-03 0 0 0
1652 1 1.0046315820069820e+01 2.9977543401310797e+01 1.3798422185913439e+00 0 0 0
2133 1 1.1408110588921920e+01 3.1422646144832608e+01 2.7629930528345197e+00 0 0 0
1682 1 9.9792833600630395e+00 3.2723751521414925e+01 1.3520491949033431e+00 0 0 0
2102 1 1.2831538033276621e+01 2.9973846389356478e+01 1.4347021101363790e+00 0 0 0
2132 1 1.3011573021797052e+01 3.2755757254198087e+01 1.4021622664122499e+00 0 0 0
2583 1 1.4262080387432828e+01 3.1437976902602188e+01 2.8973679490023181e+00 0 0 0
2552 1 1.5760200719353627e+01 2.9972654428380110e+01 1.3389452471482153e+00 0 0 0
2582 1 1.5669031393121577e+01 3.2889068009579105e+01 1.4668620322291450e+00 0 0 0
3002 1 1.8503128221611892e+01 3.0026029585905210e+01 1.2005612541448973e+00 0 0 0
3033 1 1.7329564012922688e+01 3.1426457449007710e+01 2.8424834501832792e+00 0 0 0
3032 1 1.8557368882480390e+01 3.2721606266095023e+01 1.3537523660147690e+00 0 0 0
3452 1 2.1451219707460876e+01 2.9903187749279873e+01 1.2548075674033572e+00 0 0 0
3483 1 2.0008470632987166e+01 3.1377131349878571e+01 2.8398128000247183e+00 0 0 0
3482 1 2.1487887663454174e+01 3.2652468159107315e+01 1.2787750797070012e+00 0 0 0
3481 1 1.9985694519871849e+01 3.1358334601849752e+01 4.1584424076816721e-02 0 0 0
3902 1 2.4211188139610929e+01 3.0055073840525761e+01 1.3915006891497894e+00 0 0 0
3933 1 2.2801666215745470e+01 3.1481428393630779e+01 2.8283709138913911e+00 0 0 0
3932 1 2.4275286102206909e+01 3.2635763126419448e+01 1.4081447684784538e+00 0 0 0
4352 1 2.7044612205299526e+01 2.9993314962473633e+01 1.2875684438249808e+00 0 0 0
4383 1 2.5576022716340546e+01 3.1364547837794728e+01 2.8430228517355651e+00 0 0 0
4382 1 2.7132438171604967e+01 3.2663995561954550e+01 1.4637658367794544e+00 0 0 0
4381 1 2.5696381687556560e+01 3.1432861784704713e+01 2.0509731542889165e-03 0 0 0
813 1 2.8866029002176909e+00 3.4064177237733105e+01 3.0087852463561804e+00 0 0 0
362 1 1.5936373245407423e+00 3.5587020665300329e+01 1.3292100872088610e+00 0 0 0
1263 1 5.6501494491007254e+00 3.4088116203027312e+01 2.8375196350036878e+00 0 0 0
812 1 4.2756964700928304e+00 3.5583728232885889e+01 1.4441426256982053e+00 0 0 0
1713 1 8.6041228449357039e+00 3.4098508089483232e+01 2.6936275961300944e+00 0 0 0
1262 1 6.9271443371548331e+00 3.5641776971725037e+01 1.3222491486487136e+00 0 0 0
1711 1 8.4478311949069997e+00 3.4047688549655376e+01 5.6358323537254749e-02 0 0 0
1712 1 9.9760259730867915e+00 3.5614869068198558e+01 1.3063136383248024e+00 0 0 0
2163 1 1.1490357694987669e+01 3.4111607326496895e+01 2.7305444406513617e+00 0 0 0
2161 1 1.1417010435086672e+01 3.4121591772989078e+01 9.8166667849755834e-02 0 0 0
2162 1 1.2898948434766174e+01 3.5662123501320039e+01 1.3908347620773811e+00 0 0 0
2613 1 1.4247950900238177e+01 3.4259464843596177e+01 2.8695735258894248e+00 0 0 0
2612 1 1.5701548509058759e+01 3.5591263743243985e+01 1.2463296478151418e+00 0 0 0
3063 1 1.7255010321036348e+01 3.4372732070762197e+01 2.8123721127664973e+00 0 0 0
3062 1 1.8683525975976686e+01 3.5697433494362414e+01 1.3435331189226509e+00 0 0 0
3513 1 1.9914628628177926e+01 3.4107988099195140e+01 2.7073248837724724e+00 0 0 0
3512 1 2.1233716454021721e+01 3.5700560942025618e+01 1.3101355199122473e+00 0 0 0
3963 1 2.2834985838105982e+01 3.4066380917425121e+01 2.6306571087020783e+00 0 0 0
3962 1 2.4205820608234582e+01 3.5743327544288917e+01 1.4447824996485779e+00 0 0 0
3961 1 2.2863980608938657e+01 3.4209042992722758e+01 4.8428520702880271e-02 0 0 0
4413 1 2.5660065943718497e+01 3.4092128662802011e+01 2.8569253935083485e+00 0 0 0
4412 1 2.7070111030520291e+01 3.5553077553665233e+01 1.4677772017850590e+00 0 0 0
4411 1 2.5445836727394560e+01 3.4251546065244412e+01 6.0324905871240120e-02 0 0 0
4861 1 2.8466411845737390e+01 3.4191049737024983e+01 8.0002703127096016e-03 0 0 0
392 1 1.4100902276040588e+00 3.8574683639763350e+01 1.3194595413688297e+00 0 0 0
843 1 2.8729617231775775e+00 3.7123229243105826e+01 2.9010944814525756e+00 0 0 0
841 1 2.8748291167151425e+00 3.6971809187704295e+01 1.1910455585914013e-01 0 0 0
393 1 1.1682529627338613e-01 3.7134526253595354e+01 2.7742769008530965e+00 0 0 0
842 1 4.1729621643636943e+00 3.8529326310200886e+01 1.4101589475738801e+00 0 0 0
1293 1 5.7398907128300793e+00 3.7079152867925458e+01 2.7098118109582332e+00 0 0 0
1292 1 7.1569852073047953e+00 3.8561177186813239e+01 1.3859411607550787e+00 0 0 0
1743 1 8.5590692723468447e+00 3.6892932479388492e+01 2.7826822841223429e+00 0 0 0
1742 1 1.0048895310175608e+01 3.8516135504553233e+01 1.2768639701502482e+00 0 0 0
2193 1 1.1351099534532613e+01 3.7088160027387246e+01 2.8042904030807483e+00 0 0 0
2192 1 1.2827143255956617e+01 3.8481815601506511e+01 1.2897812607715704e+00 0 0 0
2643 1 1.4195434092414759e+01 3.7111977531447039e+01 2.7376081467476987e+00 0 0 0
2642 1 1.5630672880380324e+01 3.8529055407920183e+01 1.2600300025733639e+00 0 0 0
3092 1 1.8550535220196842e+01 3.8505287298443619e+01 1.3556554245656123e+00 0 0 0
3093 1 1.7120619850825939e+01 3.7043079552306708e+01 2.8285964241847719e+00 0 0 0
3543 1 2.0034071036729621e+01 3.7183896905413647e+01 2.8429323054181412e+00 0 0 0
3542 1 2.1407514087766330e+01 3.8590101513177018e+01 1.3698216666469507e+00 0 0 0
3992 1 2.4195641599510481e+01 3.8512256451414729e+01 1.5197370212067731e+00 0 0 0
3993 1 2.2707927040512207e+01 3.7017317013372349e+01 2.7650287477137456e+00 0 0 0
4442 1 2.7027231275570060e+01 3.8469217154482422e+01 1.3034075051708127e+00 0 0 0
4443 1 2.5796874879080264e+01 3.7126974624045474e+01 2.8321664474571313e+00 0 0 0
453 1 2.8459700631021576e+00 4.2795062769846169e+01 2.7041754801315325e+00 0 -1 0
422 1 1.5115495883306911e+00 4.1303151454977851e+01 1.3146073999138381e+00 0 0 0
873 1 2.8644642602431771e+00 3.9963900466106580e+01 2.8260104661825367e+00 0 0 0
903 1 5.8059022452170943e+00 4.2815143328670089e+01 2.6693768761650616e+00 0 -1 0
872 1 4.2086063127950384e+00 4.1431500311973878e+01 1.2780217824077298e+00 0 0 0
1323 1 5.6472882924968157e+00 4.0037536980826246e+01 2.7417767949174943e+00 0 0 0
1322 1 7.0370956673017488e+00 4.1349273875162794e+01 1.2710352761112764e+00 0 0 0
1773 1 8.5425646544947060e+00 3.9970103919847276e+01 2.8852157784607897e+00 0 0 0
1772 1 1.0012736141489690e+01 4.1377364849525449e+01 1.3517244042980434e+00 0 0 0
2223 1 1.1339692747743349e+01 3.9995894265627456e+01 2.7229132163093070e+00 0 0 0
2222 1 1.2830809681729921e+01 4.1556241729589544e+01 1.3881827117559538e+00 0 0 0
2673 1 1.4269285282946669e+01 3.9953824846995730e+01 2.5290166188477592e+00 0 0 0
2672 1 1.5723720808515148e+01 4.1449484425512765e+01 1.3114886024086643e+00 0 0 0
2703 1 1.7098058488664847e+01 4.2691219336538040e+01 2.8315177441723511e+00 0 -1 0
3122 1 1.8553109303983000e+01 4.1309072295440586e+01 1.4476239880486872e+00 0 0 0
3123 1 1.7158452168825988e+01 3.9986833140617350e+01 2.8578543383451942e+00 0 0 0
3573 1 2.0013199678661969e+01 3.9865535337662322e+01 2.7831649225286901e+00 0 0 0
3572 1 2.1379448128061565e+01 4.1451387869866622e+01 1.4227150357823384e+00 0 0 0
3603 1 2.2798528036285692e+01 4.2825172280239741e+01 2.8608324036604582e+00 0 -1 0
4022 1 2.4365895930315169e+01 4.1299168631905857e+01 1.3591951446395873e+00 0 0 0
4023 1 2.2906814066112659e+01 3.9945228732150937e+01 2.7508552470427006e+00 0 0 0
4053 1 2.5666073598206339e+01 4.2785691626897417e+01 2.8894181275168487e+00 0 -1 0
4472 1 2.7187573029042682e+01 4.1408554497550625e+01 1.5063935510976494e+00 0 0 0
4473 1 2.5745414253163698e+01 4.0057056610270052e+01 2.9052630105725767e+00 0 0 0
4051 1 2.5824989557371044e+01 4.2761603755827167e+01 7.6750575746465710e-02 0 -1 0
4471 1 2.5608508980409631e+01 3.9798293857542902e+01 1.0901915020909257e-01 0 0 0
4 1 1.5420417988373272e+00 1.4300644711773587e+00 4.1437205826182462e+00 0 0 0
485 1 3.1104116637785180e+00 2.8980685118360450e+00 5.6871485383733802e+00 0 0 0
455 1 2.8454953579269127e+00 8.2860900296075665e-02 5.6212590867717740e+00 0 0 0
35 1 5.2870012588022035e-02 2.8872137929938235e+00 5.6327766929081715e+00 0 0 0
454 1 4.4355705624099757e+00 1.3613198439404863e+00 4.0840963149160618e+00 0 0 0
935 1 5.7481398360833458e+00 3.0187069664426027e+00 5.4979768436970167e+00 0 0 0
905 1 5.7289564757769087e+00 1.3232541729316535e-01 5.6372979839285362e+00 0 0 0
904 1 7.1663363513612079e+00 1.6413840688092605e+00 4.1714960406679351e+00 0 0 0
1385 1 8.6037200654822179e+00 2.8950711459880023e+00 5.5701312418560613e+00 0 0 0
1354 1 9.9762657039371483e+00 1.3950467882280435e+00 4.2407123465589640e+00 0 0 0
1835 1 1.1443004991936581e+01 2.7731936496714256e+00 5.5336812241743054e+00 0 0 0
1805 1 1.1517866923331118e+01 6.3121084957941553e-02 5.6793976975618436e+00 0 0 0
1804 1 1.2933435714516765e+01 1.4224433709897712e+00 4.2423879278066750e+00 0 0 0
2285 1 1.4337455610105113e+01 2.9678999698059680e+00 5.6443506522233164e+00 0 0 0
2254 1 1.5666300441676377e+01 1.4815200557969535e+00 4.3267972477045102e+00 0 0 0
2704 1 1.8527595143963868e+01 1.2722154072620213e+00 4.2632106174604747e+00 0 0 0
2735 1 1.7149068177439542e+01 2.8270434740954569e+00 5.5185960318417369e+00 0 0 0
3185 1 2.0033172770542421e+01 2.7546908817125915e+00 5.5964029963126496e+00 0 0 0
3154 1 2.1429234554141917e+01 1.3471023970776712e+00 4.2211764123159270e+00 0 0 0
3604 1 2.4195079241459869e+01 1.4952445325816062e+00 4.2253328695826395e+00 0 0 0
3635 1 2.2849362078091485e+01 2.8229541774171518e+00 5.6809940509954950e+00 0 0 0
4054 1 2.7095216151296679e+01 1.5532697196680776e+00 4.1616629467485708e+00 0 0 0
4085 1 2.5677741192591185e+01 2.8745578711898339e+00 5.6373921639945230e+00 0 0 0
4055 1 2.5754306189620777e+01 5.9903629420399104e-02 5.6499047631706132e+00 0 0 0
4505 1 2.8514695769847297e+01 1.0559214908758828e-01 5.5719708197337594e+00 0 0 0
34 1 1.4058669215769104e+00 4.1903554592957688e+00 4.0978833044015879e+00 0 0 0
515 1 2.9370480662277085e+00 5.6950595772618025e+00 5.5635523823361828e+00 0 0 0
65 1 4.5230763055051589e-02 5.8499391871580091e+00 5.6659205446810077e+00 0 0 0
484 1 4.3281284283411789e+00 4.3968961277646104e+00 4.1227165560337040e+00 0 0 0
965 1 5.7794809961020164e+00 5.7027850002065543e+00 5.6142931263045934e+00 0 0 0
934 1 7.2269864360294642e+00 4.3006186054371582e+00 4.1429850062704840e+00 0 0 0
1415 1 8.5074720513980484e+00 5.6847189630603179e+00 5.4765209883939203e+00 0 0 0
1384 1 1.0071748571744074e+01 4.2298558918525204e+00 4.0519279632380085e+00 0 0 0
1865 1 1.1389377922807430e+01 5.6269979621505604e+00 5.5360466381941915e+00 0 0 0
1834 1 1.2774377509835684e+01 4.2694872073349295e+00 4.1595149524648649e+00 0 0 0
2315 1 1.4239432136367872e+01 5.4950534821721693e+00 5.5012178394209519e+00 0 0 0
2284 1 1.5786309836185277e+01 4.3504952071668379e+00 4.0672110611835759e+00 0 0 0