LAMMPS data file via write_data, version 7 Aug 2019, timestep = 28000

9000 atoms
1 atom types

-1.2454929418246455e-04 5.7106124549294186e+01 xlo xhi
-9.3411970636848420e-05 4.2829593411970642e+01 ylo yhi
-9.3411970636848420e-05 4.2829593411970642e+01 zlo zhi

Masses

1 56

Atoms # atomic

2 1 1.5974416446061084e+00 1.4747922315574471e+00 1.2719458207725436e+00 0 0 0
483 1 2.9902694295877099e+00 2.9274524120622298e+00 2.8301429541868210e+00 0 0 0
33 1 2.2867465171979077e-02 2.8205312108574683e+00 2.8287338555564254e+00 0 0 0
3 1 9.4217262064919566e-02 1.7919294603608797e-02 2.6914201778827254e+00 0 0 0
452 1 4.5309732906516906e+00 1.5096205569076533e+00 1.3336717490452883e+00 0 0 0
933 1 6.0240272628347169e+00 3.0100954657859811e+00 2.7379514328669159e+00 0 0 0
453 1 3.2045312028926518e+00 9.3810654338980157e-02 2.6594213509342208e+00 0 0 0
902 1 7.1720317980347730e+00 1.4315560961542830e+00 1.3641965891559700e+00 0 0 0
1383 1 8.7515043820503706e+00 2.8554208756551027e+00 2.6527513785040377e+00 0 0 0
1353 1 8.6248629796501159e+00 4.8769756414112127e-03 2.8884266904266553e+00 0 0 0
1352 1 1.0134721512838770e+01 1.3456103431257209e+00 1.3720302427624227e+00 0 0 0
1833 1 1.1529495674738770e+01 2.8383155873793982e+00 2.7881554869235834e+00 0 0 0
1831 1 1.1561122674465555e+01 2.8853630393497971e+00 2.5723306094719969e-02 0 0 0
1801 1 1.1456008580224147e+01 3.7434962775276151e-02 6.9763563181150665e-02 0 0 0
1802 1 1.3022376971359320e+01 1.4473395289960387e+00 1.4208776700448582e+00 0 0 0
2252 1 1.5797596762328547e+01 1.4208137522833550e+00 1.2869537955271568e+00 0 0 0
2283 1 1.4423496488717786e+01 2.8308095166464784e+00 2.7796599868649152e+00 0 0 0
2702 1 1.8533042663384588e+01 1.4740372328486100e+00 1.3442501042433819e+00 0 0 0
2733 1 1.7058873180678304e+01 2.7927278227461123e+00 2.8852910486614531e+00 0 0 0
2731 1 1.7015195797048570e+01 3.0868488589905083e+00 1.9707344064737127e-02 0 0 0
3183 1 2.0051358786943389e+01 2.9192085518720097e+00 2.8744321475450008e+00 0 0 0
3152 1 2.1601867392073366e+01 1.5465412337925104e+00 1.5785946768303416e+00 0 0 0
3181 1 1.9956266879833219e+01 2.7528220509848196e+00 4.7529772662763446e-02 0 0 0
3151 1 2.0121004879462873e+01 8.6604517667154823e-04 9.5373206653707007e-02 0 0 0
3602 1 2.4164654260501635e+01 1.4439192337824116e+00 1.4410314928507297e+00 0 0 0
3633 1 2.2868958505865617e+01 2.8970653202092387e+00 2.9721694852767500e+00 0 0 0
4052 1 2.6986879547667847e+01 1.5028847093373214e+00 1.4740181118253781e+00 0 0 0
4083 1 2.5740607450095144e+01 2.7871276235579203e+00 3.0307401686480642e+00 0 0 0
4081 1 2.5495160874803442e+01 2.8094140592303942e+00 7.9492159589207467e-02 0 0 0
4503 1 2.8459219809527934e+01 4.1252908818601702e-03 2.8375032577325490e+00 0 0 0
4533 1 2.8496738841427383e+01 2.8525177641528057e+00 2.9432154051794446e+00 0 0 0
4531 1 2.8449369318082177e+01 2.8422605674972705e+00 1.6386999523543352e-01 0 0 0
32 1 1.4092429524329491e+00 4.4207956905622332e+00 1.2442318433525321e+00 0 0 0
513 1 2.9841310495042919e+00 5.7454610211200956e+00 2.7238915653872704e+00 0 0 0
63 1 3.9893352046662042e-02 5.8760200489060379e+00 2.8029603131392382e+00 0 0 0
482 1 4.4109177010181249e+00 4.3211968916885395e+00 1.3551440380191537e+00 0 0 0
963 1 5.8884758033991167e+00 5.7229707543723620e+00 2.7095743830321282e+00 0 0 0
932 1 7.3466194600092640e+00 4.3414405172587864e+00 1.2740688239551143e+00 0 0 0
1413 1 8.6736271961912923e+00 5.6946448887810597e+00 2.8891369778054687e+00 0 0 0
1382 1 1.0017163607359230e+01 4.3901900402279246e+00 1.2669243719993633e+00 0 0 0
1863 1 1.1448507013721292e+01 5.7309396758420741e+00 2.6837119709418387e+00 0 0 0
1832 1 1.2914063745674335e+01 4.3687826353840657e+00 1.4298479516428562e+00 0 0 0
2313 1 1.4285635813418287e+01 5.7083147202475510e+00 2.9090779328902521e+00 0 0 0
2282 1 1.5625753323443071e+01 4.3397073882766222e+00 1.4207343612382630e+00 0 0 0
2311 1 1.4394743908991314e+01 5.7286423988842960e+00 3.1180086967341016e-02 0 0 0
2732 1 1.8753852906181415e+01 4.2465362170887877e+00 1.5137459037967325e+00 0 0 0
2763 1 1.7171413556634853e+01 5.6532131376674810e+00 2.8244465935654155e+00 0 0 0
2761 1 1.7271591887954198e+01 5.6569522361144831e+00 1.9242482055261689e-03 0 0 0
3213 1 1.9923583652189269e+01 5.7051487326743811e+00 2.9644439297165426e+00 0 0 0
3182 1 2.1494287617890492e+01 4.4193187685304007e+00 1.4877146880334982e+00 0 0 0
3211 1 2.0009662177102133e+01 5.7542242953674805e+00 3.9664172935770708e-02 0 0 0
3632 1 2.4233360541860527e+01 4.3411932823736281e+00 1.4537081397382186e+00 0 0 0
3663 1 2.2850491803442061e+01 5.8425011082339191e+00 2.8737034820024436e+00 0 0 0
4082 1 2.6885937008344698e+01 4.2782886173959165e+00 1.5251269671424021e+00 0 0 0
4113 1 2.5715043477623752e+01 5.9173213023615112e+00 2.8007778880193732e+00 0 0 0
4563 1 2.8480649385696349e+01 5.7186852472613232e+00 2.7748148474418435e+00 0 0 0
4561 1 2.8441116500607976e+01 5.7025263942615689e+00 1.1363530942411444e-02 0 0 0
62 1 1.5315143528149697e+00 7.2337679489874986e+00 1.3962426463534778e+00 0 0 0
543 1 3.0288229510809397e+00 8.6093655304881747e+00 2.7787878860856359e+00 0 0 0
541 1 3.0207443776801548e+00 8.6737022096791261e+00 6.3609346354362800e-02 0 0 0
93 1 1.4413166215461157e-01 8.8301460184847773e+00 2.8102867830962839e+00 0 0 0
512 1 4.4126809724426543e+00 7.1819792914411282e+00 1.3580404071504879e+00 0 0 0
993 1 5.8257658872360087e+00 8.6686796617281665e+00 2.7752894825060963e+00 0 0 0
991 1 5.7770104694424971e+00 8.7935476959226104e+00 3.1642949195675191e-03 0 0 0
962 1 7.1994881567140210e+00 7.1706574259612346e+00 1.2732418958024843e+00 0 0 0
1443 1 8.7359189407577542e+00 8.6512671358210476e+00 2.6122811065010176e+00 0 0 0
1412 1 1.0119816860658359e+01 7.1823476274219900e+00 1.2044024970469005e+00 0 0 0
1893 1 1.1549441160556283e+01 8.6589024077691299e+00 2.6471205357634084e+00 0 0 0
1862 1 1.2794589952981864e+01 7.2877237752486961e+00 1.4557989362460984e+00 0 0 0
2343 1 1.4352435343460519e+01 8.5687412642484642e+00 2.6982404020661956e+00 0 0 0
2312 1 1.5826849457810546e+01 7.2213909906489553e+00 1.3952454394534646e+00 0 0 0
2762 1 1.8601009239432457e+01 7.2071702452000155e+00 1.3216282441225189e+00 0 0 0
2793 1 1.7256869502327103e+01 8.6338066973758334e+00 2.8047693909740952e+00 0 0 0
3212 1 2.1304091304058925e+01 7.1159787904304936e+00 1.3559567662834735e+00 0 0 0
3243 1 2.0059206758495385e+01 8.5990231046997465e+00 2.9126783420717737e+00 0 0 0
3662 1 2.4315789934787396e+01 7.2581261384224849e+00 1.3709887174813264e+00 0 0 0
3693 1 2.2817207692095423e+01 8.5148450277935730e+00 2.8962576738487260e+00 0 0 0
4143 1 2.5538315667733656e+01 8.7955979034659606e+00 2.8991894703750098e+00 0 0 0
4112 1 2.7061003857388908e+01 7.2306630085299162e+00 1.4037266578100724e+00 0 0 0
4593 1 2.8483724180951778e+01 8.5330159761868956e+00 2.7787747787937227e+00 0 0 0
92 1 1.7299430083424006e+00 1.0211631647869096e+01 1.3892757982491442e+00 0 0 0
573 1 2.9949005908206963e+00 1.1620934714415339e+01 2.8847243509327720e+00 0 0 0
122 1 1.5820496621054307e+00 1.2946801066278717e+01 1.3558996128700369e+00 0 0 0
123 1 1.2164535001071632e-01 1.1583436168819244e+01 2.7617464941955450e+00 0 0 0
542 1 4.2740343371240916e+00 1.0290602854619829e+01 1.4764673006750129e+00 0 0 0
1023 1 5.8258334047678320e+00 1.1536543524857626e+01 2.7706235399283083e+00 0 0 0
572 1 4.3354608149997533e+00 1.2953044305480963e+01 1.4525905872703218e+00 0 0 0
992 1 7.2470687295360170e+00 1.0280704880454675e+01 1.3820934267695588e+00 0 0 0
1473 1 8.7463380642576887e+00 1.1672568216255728e+01 2.7945661682619054e+00 0 0 0
1022 1 7.2581625443531390e+00 1.2944021677022864e+01 1.3452718004011002e+00 0 0 0
1442 1 1.0085471584629749e+01 1.0218532886891175e+01 1.3816904903297167e+00 0 0 0
1923 1 1.1539507485149786e+01 1.1660747641459297e+01 2.7019635370092820e+00 0 0 0
1472 1 1.0090289350887435e+01 1.2985523597661823e+01 1.2833474105361573e+00 0 0 0
1892 1 1.2940878930151449e+01 1.0096609458827267e+01 1.2493612420923335e+00 0 0 0
1922 1 1.2950517465273927e+01 1.3065438148873662e+01 1.3476528361895563e+00 0 0 0
2373 1 1.4287602663003630e+01 1.1494945574763271e+01 2.7787914737009252e+00 0 0 0
2372 1 1.5731995836648391e+01 1.2873672536506886e+01 1.4219012859087363e+00 0 0 0
2342 1 1.5714349459236024e+01 9.9809607615965774e+00 1.3950858671315269e+00 0 0 0
2371 1 1.4470083886701081e+01 1.1492054111636955e+01 6.6384496746523233e-02 0 0 0
2792 1 1.8576543289461814e+01 9.9545138507289277e+00 1.4315431390375204e+00 0 0 0
2823 1 1.7292782067968943e+01 1.1489168850632451e+01 2.7362431405003673e+00 0 0 0
2822 1 1.8553717616485429e+01 1.2968475325260789e+01 1.3165924440951706e+00 0 0 0
2821 1 1.7297579639979251e+01 1.1471263572409184e+01 7.4554795747245120e-02 0 0 0
3242 1 2.1340942017151484e+01 1.0069188262406584e+01 1.3369711247076097e+00 0 0 0
3273 1 1.9979151700486103e+01 1.1479395314737790e+01 2.8464895409759925e+00 0 0 0
3272 1 2.1250354296561675e+01 1.2803788074254834e+01 1.3534228195830564e+00 0 0 0
3271 1 1.9919834728736738e+01 1.1374838104806578e+01 9.6304082215901820e-03 0 0 0
3692 1 2.4206545538953105e+01 9.9293709433351331e+00 1.3691743714469260e+00 0 0 0
3723 1 2.2638032568104244e+01 1.1462752429815673e+01 2.8634976264199983e+00 0 0 0
3722 1 2.4192339493820228e+01 1.2978901005277018e+01 1.4188443169776008e+00 0 0 0
4142 1 2.6955264189996129e+01 1.0058805191028741e+01 1.2928741649547533e+00 0 0 0
4173 1 2.5533455569306838e+01 1.1422263553969266e+01 2.9234315670745241e+00 0 0 0
4172 1 2.6892655045833695e+01 1.2829576611936155e+01 1.4589721996620642e+00 0 0 0
4171 1 2.5456701057274774e+01 1.1531519581268110e+01 3.3703482621167603e-02 0 0 0
4623 1 2.8456674978378224e+01 1.1374082041219138e+01 2.8479249123605972e+00 0 0 0
603 1 2.9933995516190191e+00 1.4360078375984152e+01 2.8671126402462357e+00 0 0 0
152 1 1.5878569428583762e+00 1.5627570795920287e+01 1.3898489087257930e+00 0 0 0
153 1 7.5149316844365668e-02 1.4363227070358832e+01 2.6793048101508448e+00 0 0 0
1053 1 5.8288924936354247e+00 1.4326430635639475e+01 2.8489528351180131e+00 0 0 0
602 1 4.5203111564156906e+00 1.5743357613908609e+01 1.4272299142079101e+00 0 0 0
1503 1 8.7794006864682519e+00 1.4281741401585711e+01 2.9403089839016761e+00 0 0 0
1052 1 7.2857010395247359e+00 1.5769111224877490e+01 1.4597752702818831e+00 0 0 0
1953 1 1.1534427832503839e+01 1.4390417325265485e+01 2.8603952389861833e+00 0 0 0
1502 1 1.0150881485756059e+01 1.5639695874580575e+01 1.3737563765368006e+00 0 0 0
1952 1 1.2902962087452281e+01 1.5742408937474037e+01 1.3277385320991293e+00 0 0 0
2403 1 1.4388934668726082e+01 1.4335393607675476e+01 2.8286706939698005e+00 0 0 0
2402 1 1.5778121445480423e+01 1.5697225114665583e+01 1.4516573857109256e+00 0 0 0
2853 1 1.7288941974455962e+01 1.4338599300048687e+01 2.8432852594887867e+00 0 0 0
2852 1 1.8617427965656077e+01 1.5742388837239998e+01 1.2597762347420556e+00 0 0 0
3302 1 2.1420631112044553e+01 1.5676104620495011e+01 1.3296991718537416e+00 0 0 0
3303 1 1.9996416259183690e+01 1.4119194570101270e+01 2.8379245007124250e+00 0 0 0
3753 1 2.2723956306852166e+01 1.4189440626573473e+01 2.8180523312898051e+00 0 0 0
3752 1 2.4125847972767982e+01 1.5668380096467830e+01 1.3492443684601341e+00 0 0 0
4203 1 2.5652243523396908e+01 1.4375696390036417e+01 2.8266221172638129e+00 0 0 0
4202 1 2.7059297011734596e+01 1.5773800540298385e+01 1.3119489589349351e+00 0 0 0
4653 1 2.8498532236338360e+01 1.4321865525139001e+01 2.8365868425200471e+00 0 0 0
182 1 1.6693288381385158e+00 1.8580420311514242e+01 1.3089873543413493e+00 0 0 0
633 1 3.0446261104169481e+00 1.7204210339448419e+01 2.8398291518934511e+00 0 0 0
183 1 2.7420843750620366e-01 1.7194337055675085e+01 2.6622195623483220e+00 0 0 0
632 1 4.5519145858253358e+00 1.8633422151879564e+01 1.3447528210106265e+00 0 0 0
1083 1 5.8274428288787172e+00 1.7127888029677109e+01 2.8475898932674149e+00 0 0 0
1082 1 7.3465435194383604e+00 1.8585479157381506e+01 1.4385540878260554e+00 0 0 0
1533 1 8.7340458830895518e+00 1.7164175388046779e+01 2.8574476689918966e+00 0 0 0
1532 1 1.0080100244237494e+01 1.8545700804076375e+01 1.3846123361284228e+00 0 0 0
1983 1 1.1433314879959275e+01 1.7198570472733831e+01 2.7760676783076659e+00 0 0 0
1982 1 1.2850867552043086e+01 1.8551294240665793e+01 1.3419345207409343e+00 0 0 0
2433 1 1.4306527157402723e+01 1.7131906014956765e+01 2.6798191164456711e+00 0 0 0
2432 1 1.5815324070305184e+01 1.8635521293764061e+01 1.3603478965802096e+00 0 0 0
2882 1 1.8679768068388000e+01 1.8500826272303140e+01 1.2747080830217514e+00 0 0 0
2883 1 1.7207478026435048e+01 1.7164019067067205e+01 2.6456040206317022e+00 0 0 0
3333 1 2.0097932402913933e+01 1.7047584506720863e+01 2.8518412449486328e+00 0 0 0
3332 1 2.1427295204229559e+01 1.8486334475459063e+01 1.3515682274765568e+00 0 0 0
3783 1 2.2760116917241888e+01 1.7023080623548690e+01 2.9069538234172070e+00 0 0 0
3782 1 2.4063440090908681e+01 1.8490232530311733e+01 1.4593181039987690e+00 0 0 0
4232 1 2.7015830281546496e+01 1.8562412041841299e+01 1.4835004533094551e+00 0 0 0
4233 1 2.5530768284867403e+01 1.7172807626016798e+01 3.0084167724756936e+00 0 0 0
4231 1 2.5562976522082593e+01 1.7219301715036146e+01 4.3191316615562393e-02 0 0 0
4681 1 2.8421768509892388e+01 1.7224579702084348e+01 1.1192452866516833e-02 0 0 0
4683 1 2.8461479955748878e+01 1.6949588534409131e+01 2.7599964798126941e+00 0 0 0
212 1 1.7649983522135728e+00 2.1443099708132422e+01 1.4563889608750964e+00 0 0 0
663 1 3.1011674501090067e+00 2.0074217620631533e+01 2.8065521170231276e+00 0 0 0
693 1 3.0816381960005352e+00 2.2854007739854310e+01 2.9524482324194117e+00 0 0 0
243 1 3.0575152571407138e-01 2.3014139490375211e+01 2.7609224348854364e+00 0 0 0
213 1 2.1265521257135653e-01 2.0077711344401852e+01 2.7857283538164497e+00 0 0 0
211 1 1.3384017193343503e-01 2.0074780318035906e+01 9.5317873234310332e-02 0 0 0
662 1 4.4123439731645879e+00 2.1509463583959768e+01 1.2876164165319617e+00 0 0 0
1113 1 5.8960212415418392e+00 1.9980369756829152e+01 2.8463877926719854e+00 0 0 0
1143 1 5.9777282290962166e+00 2.2793492441830885e+01 2.8503907460941078e+00 0 0 0
691 1 3.2026570492198578e+00 2.2958763971881421e+01 9.6056808385188097e-02 0 0 0
1112 1 7.3145661764674674e+00 2.1392137183078866e+01 1.4384712323659257e+00 0 0 0
1563 1 8.7152717159480062e+00 1.9864087374425640e+01 2.8617900759675954e+00 0 0 0
1593 1 8.7942610645643295e+00 2.2945586290662234e+01 2.9770469806470023e+00 0 0 0
2013 1 1.1464405105914556e+01 2.0008151942113827e+01 2.8558404547350893e+00 0 0 0
1562 1 9.9764144169617754e+00 2.1496811500378964e+01 1.6373346215318807e+00 0 0 0
2043 1 1.1643667975456285e+01 2.2822842322085716e+01 2.8961156759248206e+00 0 0 0
2011 1 1.1532376454074644e+01 2.0075605391583295e+01 2.5188321773096056e-02 0 0 0
2012 1 1.2969781025691125e+01 2.1421141214186218e+01 1.4287551832329408e+00 0 0 0
2463 1 1.4534410863854296e+01 1.9966003252110536e+01 2.8261157717436678e+00 0 0 0
2493 1 1.4458650985680052e+01 2.2908827637634175e+01 2.7534924522859154e+00 0 0 0
2462 1 1.5764171082003834e+01 2.1335777856591477e+01 1.4055063037233524e+00 0 0 0
2461 1 1.4202909984993362e+01 2.0044658781384232e+01 1.9967315240181395e-02 0 0 0
2491 1 1.4349592192202568e+01 2.2868793537878396e+01 4.7517944501773365e-02 0 0 0
2913 1 1.7303126405499746e+01 2.0110707557902135e+01 2.8548032466850510e+00 0 0 0
2912 1 1.8734410360618764e+01 2.1492803928836711e+01 1.2965636708282777e+00 0 0 0
2943 1 1.7258920517146631e+01 2.2874101539423439e+01 2.8312022736151130e+00 0 0 0
2941 1 1.7257494024302446e+01 2.2755118150357184e+01 9.7376131494265467e-02 0 0 0
2911 1 1.7221975140667201e+01 1.9940445914884897e+01 2.0731478382824731e-02 0 0 0
3362 1 2.1431112163765938e+01 2.1535220040238887e+01 1.2645525887439242e+00 0 0 0
3361 1 2.0025583673521918e+01 2.0108097430923319e+01 2.6673432900173895e+00 0 0 0
3393 1 2.0015489875900357e+01 2.2885256542289280e+01 2.8535085509970592e+00 0 0 0
3813 1 2.2715305677552074e+01 1.9968563178294250e+01 2.7165327785204179e+00 0 0 0
3812 1 2.4340800269644397e+01 2.1297564725375363e+01 1.4955656676025235e+00 0 0 0
3843 1 2.2921520001839273e+01 2.2999239330578071e+01 2.5186968016515663e+00 0 0 0
3388 1 2.2968148858468439e+01 2.0136513610584597e+01 3.1050452966063676e-02 0 0 1
4291 1 2.5581825722570468e+01 1.9796337774103911e+01 2.8820229233802732e+00 0 0 0
3840 1 2.7184397763776474e+01 2.1308970985035529e+01 1.5077846096679621e+00 0 0 1
4293 1 2.5600180123553351e+01 2.2877604066076845e+01 2.6683964069641024e+00 0 0 0
4261 1 2.5690734375853399e+01 1.9951610638952918e+01 4.4205178505822305e-02 0 0 0
4713 1 2.8439280969907397e+01 1.9881648657220595e+01 2.8424351264196051e+00 0 0 0
4743 1 2.8296790313975713e+01 2.2951984697815327e+01 2.8721352660021546e+00 0 0 0
242 1 1.6797303726746677e+00 2.4351054121746426e+01 1.3678584343066584e+00 0 0 0
723 1 2.9464482429368464e+00 2.5767916678509270e+01 2.8107127563881975e+00 0 0 0
273 1 1.0660820082796313e-01 2.5635773576007583e+01 2.7563370226609627e+00 0 0 0
692 1 4.5370771051999572e+00 2.4377085417084430e+01 1.5613931641473464e+00 0 0 0
1173 1 5.8665145873408902e+00 2.5737932667178427e+01 2.8121301321526655e+00 0 0 0
1142 1 7.2940318610407902e+00 2.4437429445422136e+01 1.4935600556669753e+00 0 0 0
1623 1 8.9730081727245352e+00 2.5666070808885230e+01 2.8894980803828165e+00 0 0 0
1621 1 9.0149842982692068e+00 2.5300171021507108e+01 7.0912067232235351e-02 0 0 0
1592 1 1.0282508593861719e+01 2.4196401446006170e+01 1.5386332850407289e+00 0 0 0
2073 1 1.1659201924415346e+01 2.5764007332951287e+01 2.9249455644068263e+00 0 0 0
2071 1 1.1680451548111570e+01 2.5663016357782482e+01 8.8668218186162495e-02 0 0 0
2042 1 1.2947434333891504e+01 2.4244928895813860e+01 1.3673066385137831e+00 0 0 0
2523 1 1.4572222163018404e+01 2.5745566079573241e+01 2.8568465583739475e+00 0 0 0
2492 1 1.5792923721205227e+01 2.4367358075425791e+01 1.3344948694572742e+00 0 0 0
2521 1 1.4348028366288895e+01 2.5782872625069182e+01 2.0729080968836654e-02 0 0 0
2973 1 1.7180356677226143e+01 2.5751125303854757e+01 2.8554677615680113e+00 0 0 0
2970 1 1.8661478336472531e+01 2.4353618206145853e+01 1.4219227960964069e+00 0 0 1
2971 1 1.7305186876724274e+01 2.5732655259892208e+01 1.7948712813963937e-02 0 0 0
3392 1 2.1536270361384076e+01 2.4287353512698033e+01 1.3238959746882428e+00 0 0 0
3423 1 1.9853952065286599e+01 2.5737314267031152e+01 2.8170961085105741e+00 0 0 0
3842 1 2.4283153470916126e+01 2.4341318859204954e+01 1.2164765657006587e+00 0 0 0
3873 1 2.2734852750156342e+01 2.5756936426905490e+01 2.8254538540938716e+00 0 0 0
4292 1 2.7098045833292453e+01 2.4197494867126316e+01 1.3899321598593124e+00 0 0 0
4323 1 2.5646589423673685e+01 2.5725334553755118e+01 2.6934526709967006e+00 0 0 0
4321 1 2.5750444279251671e+01 2.5687109274323337e+01 6.7674788253227050e-02 0 0 0
4771 1 2.8443703978300242e+01 2.5734174315747083e+01 3.6810101971623999e-03 0 0 0
4773 1 2.8514008197071906e+01 2.5765748367857142e+01 2.9007235428226532e+00 0 0 0
272 1 1.5078246954681729e+00 2.7022850588341594e+01 1.3753905531397042e+00 0 0 0
753 1 3.0138779754386715e+00 2.8443217676612839e+01 2.7952956020193036e+00 0 0 0
751 1 3.0148025206466023e+00 2.8492254792560011e+01 1.3066023779062255e-01 0 0 0
303 1 8.9426574736741996e-02 2.8316066986946439e+01 2.8886594462478592e+00 0 0 0
722 1 4.5183360023841992e+00 2.7036115152422749e+01 1.4406167948644222e+00 0 0 0
1203 1 6.0642171011169825e+00 2.8623165065127399e+01 2.8206343824937505e+00 0 0 0
1201 1 5.9710574553608327e+00 2.8609806408723831e+01 2.6846763232750866e-02 0 0 0
1172 1 7.3791937339871065e+00 2.7247442587576138e+01 1.5622263458935475e+00 0 0 0
1653 1 8.8108010905218457e+00 2.8634455925753450e+01 2.9619274524550128e+00 0 0 0
1651 1 9.0286302467347213e+00 2.8741472893095374e+01 2.2720078523161369e-01 0 0 0
1622 1 1.0338849090185375e+01 2.7118752066898679e+01 1.5383810755749248e+00 0 0 0
2103 1 1.1542614970649476e+01 2.8557405219460215e+01 2.8676982395435102e+00 0 0 0
2072 1 1.3038375369601956e+01 2.7179634887262342e+01 1.4306014435659706e+00 0 0 0
2553 1 1.4486076352092287e+01 2.8625496492011735e+01 2.8135319241493781e+00 0 0 0
2522 1 1.5887855734477162e+01 2.7183459973969931e+01 1.2440076147586709e+00 0 0 0
2972 1 1.8546248038546228e+01 2.7337165669172304e+01 1.2795890514303623e+00 0 0 0
3003 1 1.7183691781888751e+01 2.8665014600938562e+01 2.8225930084033624e+00 0 0 0
3422 1 2.1470492530151848e+01 2.6996682119350602e+01 1.3302247531121609e+00 0 0 0
3453 1 2.0137389960336915e+01 2.8490671057865718e+01 2.7295470181535366e+00 0 0 0
3872 1 2.4141081337371794e+01 2.7086223750553486e+01 1.3207091445024384e+00 0 0 0
3903 1 2.2859911529385858e+01 2.8512802954142131e+01 2.8045435399344520e+00 0 0 0
4322 1 2.6980359036280301e+01 2.7164568049624819e+01 1.3018691276152108e+00 0 0 0
4353 1 2.5779905187147968e+01 2.8680761261652766e+01 2.8192631802667187e+00 0 0 0
4803 1 2.8514260466479339e+01 2.8459723473431662e+01 2.7408437044176504e+00 0 0 0
302 1 1.5218104767576068e+00 2.9869192057831579e+01 1.5079958214416962e+00 0 0 0
783 1 3.0334177941611200e+00 3.1393999573333073e+01 2.8338565862447802e+00 0 0 0
332 1 1.6861338862104922e+00 3.2786008339812341e+01 1.3678893794009173e+00 0 0 0
333 1 2.2312430607841266e-01 3.1285465525296569e+01 2.9049523952495671e+00 0 0 0
752 1 4.4896211661169270e+00 3.0054660013910659e+01 1.2918470624792442e+00 0 0 0
1233 1 5.8676685733939005e+00 3.1427564395148590e+01 2.7962526997909940e+00 0 0 0
782 1 4.4520177417133970e+00 3.2659366364498212e+01 1.4288830557756500e+00 0 0 0
1202 1 7.3931971842896216e+00 3.0121341185223258e+01 1.3722571950063653e+00 0 0 0
1683 1 8.7991069479993307e+00 3.1414789957062400e+01 2.9659834593963881e+00 0 0 0
1232 1 7.3293620451355403e+00 3.2729116716470827e+01 1.3041462767632404e+00 0 0 0
1652 1 1.0353117808997849e+01 3.0053697833014041e+01 1.5110905626290172e+00 0 0 0
2133 1 1.1671666740846517e+01 3.1440390339318576e+01 2.8183550151586227e+00 0 0 0
1682 1 1.0070763571240990e+01 3.2714114224147693e+01 1.3352066668188720e+00 0 0 0
2102 1 1.3093793935325609e+01 2.9947062984428261e+01 1.4182984875281821e+00 0 0 0
2552 1 1.5572113315866597e+01 2.9997889334316927e+01 1.3653728072848292e+00 0 0 0
2583 1 1.4422147433793535e+01 3.1452374688549437e+01 2.8030883175475005e+00 0 0 0
2132 1 1.3023990718266559e+01 3.2828349655772435e+01 1.4579261335301610e+00 0 0 0
2581 1 1.4245684422908928e+01 3.1457804741335636e+01 4.9428758584542508e-02 0 0 0
2582 1 1.5900834919764936e+01 3.2870361589970720e+01 1.3720102837920733e+00 0 0 0
3002 1 1.8634220450161092e+01 2.9901841401459865e+01 1.3099979451280095e+00 0 0 0
3033 1 1.7202528558078896e+01 3.1231690439002048e+01 2.7759418491883934e+00 0 0 0
3032 1 1.8590948858100852e+01 3.2745576456963263e+01 1.3168362593849843e+00 0 0 0
3031 1 1.7116093785277467e+01 3.1393226767645512e+01 9.8293849729042912e-02 0 0 0
3452 1 2.1468123374182174e+01 3.0077282932111881e+01 1.2460997538836831e+00 0 0 0
3483 1 2.0013490939929522e+01 3.1401662459353929e+01 2.7182262890386779e+00 0 0 0
3482 1 2.1428925933318038e+01 3.2827341490704164e+01 1.4166957417575825e+00 0 0 0
3481 1 2.0098516640442497e+01 3.1449368365818533e+01 2.0507431664726794e-02 0 0 0
3902 1 2.4276149804449695e+01 2.9874694230971560e+01 1.3574041658972886e+00 0 0 0
3933 1 2.2816069559971762e+01 3.1341012247776558e+01 2.7743036421022680e+00 0 0 0
3932 1 2.4278791861333310e+01 3.2851581789256286e+01 1.5046461980737400e+00 0 0 0
4352 1 2.6948181489396053e+01 2.9937272265077922e+01 1.4383678313426258e+00 0 0 0
4383 1 2.5585936805675022e+01 3.1367396357387666e+01 2.9261195204760324e+00 0 0 0
4382 1 2.7023145105009249e+01 3.2751678842181661e+01 1.3863446836338122e+00 0 0 0
4833 1 2.8384830627182062e+01 3.1366496156713847e+01 2.8514147633778109e+00 0 0 0
813 1 3.0633173972977210e+00 3.4215377063109855e+01 2.7730002409796595e+00 0 0 0
362 1 1.6468316869644539e+00 3.5642955902533323e+01 1.4221393990783018e+00 0 0 0
363 1 1.7045005070364280e-01 3.4070543436685242e+01 2.7880469456389907e+00 0 0 0
1263 1 5.8387244126226658e+00 3.4082994334783962e+01 2.7809898898979952e+00 0 0 0
812 1 4.5283906297002385e+00 3.5563104190539903e+01 1.3270519956526603e+00 0 0 0
1713 1 8.6589362355483228e+00 3.4144747472609815e+01 2.8283650329208321e+00 0 0 0
1262 1 7.3274575238589410e+00 3.5599146068256815e+01 1.3384588713520527e+00 0 0 0
2163 1 1.1449818055196298e+01 3.4092770078969941e+01 2.7454241143587286e+00 0 0 0
1712 1 1.0036379600760874e+01 3.5484621957529797e+01 1.4007134395869301e+00 0 0 0
2161 1 1.1636736932632898e+01 3.4147858973317582e+01 3.9729019461570404e-02 0 0 0
2162 1 1.2888799080107917e+01 3.5612015986729318e+01 1.3236959070215508e+00 0 0 0
2613 1 1.4319822890682023e+01 3.4188858960548203e+01 2.8734858000298242e+00 0 0 0
2612 1 1.5679275756944868e+01 3.5567570671689758e+01 1.4539433983204646e+00 0 0 0
3063 1 1.7210685940002161e+01 3.4264578095589485e+01 2.9224820923153505e+00 0 0 0
3062 1 1.8741295519395852e+01 3.5598399819328961e+01 1.3538404496397018e+00 0 0 0
3513 1 2.0096299482449478e+01 3.4277131016607008e+01 2.8058101292747759e+00 0 0 0
3512 1 2.1453368168248609e+01 3.5625232720624233e+01 1.3583642438469301e+00 0 0 0
3963 1 2.2854879537742601e+01 3.4245948240099750e+01 2.8789410459083298e+00 0 0 0
3962 1 2.4122894061390795e+01 3.5662309631177585e+01 1.4544298001866656e+00 0 0 0
4413 1 2.5694985304748272e+01 3.4203688696347349e+01 2.8183153974092945e+00 0 0 0
4412 1 2.7070075387445666e+01 3.5740889747267012e+01 1.2825682547900019e+00 0 0 0
4861 1 2.8470538784210884e+01 3.4228906535130044e+01 1.3462003049069906e-02 0 0 0
4863 1 2.8360959251860848e+01 3.4230619763086516e+01 2.8193903111519902e+00 0 0 0
392 1 1.4526973996473713e+00 3.8474908140204462e+01 1.3630658483823479e+00 0 0 0
843 1 2.8745869464551532e+00 3.7034566375540635e+01 2.9078547063603573e+00 0 0 0
842 1 4.3562047442250842e+00 3.8415400958157143e+01 1.3326134075180194e+00 0 0 0
1293 1 5.7900335174187783e+00 3.6986719004265360e+01 2.8083398202837331e+00 0 0 0
1291 1 6.0682105598470359e+00 3.7116325376561619e+01 6.7953898026676229e-02 0 0 0
1292 1 7.2830705598876930e+00 3.8459969566436847e+01 1.4705972490876686e+00 0 0 0
1743 1 8.6555938724793506e+00 3.6916513444727350e+01 2.7813869727368092e+00 0 0 0
1742 1 1.0118108619432933e+01 3.8401263907543360e+01 1.3607617285482907e+00 0 0 0
2193 1 1.1401559480575143e+01 3.7042960516388966e+01 2.8074951276435018e+00 0 0 0
2192 1 1.2902037301092625e+01 3.8507592020382795e+01 1.4461623529426408e+00 0 0 0
2643 1 1.4295095039879648e+01 3.6978684344028018e+01 2.7766676395666909e+00 0 0 0
2641 1 1.4412940854560368e+01 3.7214687534379280e+01 3.4547709368846193e-02 0 0 0
2642 1 1.5872908606635763e+01 3.8464119247723055e+01 1.3005561072051859e+00 0 0 0
3092 1 1.8677761953772379e+01 3.8491445776725648e+01 1.3356919140273791e+00 0 0 0
3093 1 1.7198817133670303e+01 3.7051865387494281e+01 2.8317848341898384e+00 0 0 0
3543 1 1.9937228394021506e+01 3.7074748173927361e+01 2.8703880115361002e+00 0 0 0
3542 1 2.1350628635373411e+01 3.8466168131617934e+01 1.3261272201440493e+00 0 0 0
3992 1 2.4279439769390926e+01 3.8401335425961229e+01 1.3687670357117234e+00 0 0 0
3993 1 2.2885171010664092e+01 3.7056835887095289e+01 2.8466009848538647e+00 0 0 0
4442 1 2.7038022760016407e+01 3.8438773212302550e+01 1.3054562153273255e+00 0 0 0
4443 1 2.5646586328402535e+01 3.7026613481040314e+01 2.7089051632137373e+00 0 0 0
4893 1 2.8442269030131111e+01 3.7047448204055833e+01 2.7622778617374553e+00 0 0 0
422 1 1.6223023077951642e+00 4.1431312093980260e+01 1.4166077567485951e+00 0 0 0
873 1 3.0430236803604185e+00 3.9943033806193817e+01 2.6411019207045454e+00 0 0 0
421 1 1.2054296820264222e-01 3.9864464543403081e+01 9.7775558185230399e-02 0 0 0
1 1 1.7306235800982903e-01 4.2805974303249499e+01 6.9057368406788555e-04 0 -1 0
423 1 3.1534000157097800e-02 3.9691244263551923e+01 2.7674388425522993e+00 0 0 0
903 1 5.9813340317149528e+00 4.2725145720649671e+01 2.7564920604197085e+00 0 -1 0
872 1 4.5100214612419629e+00 4.1272802362814510e+01 1.3268380480434119e+00 0 0 0
1323 1 5.7891690788709935e+00 3.9901188266560581e+01 2.6983607751197254e+00 0 0 0
1321 1 5.8064892747642505e+00 3.9891736957308154e+01 1.3852528668174676e-02 0 0 0
1322 1 7.4914512962727615e+00 4.1349120439781458e+01 1.2988066156878233e+00 0 0 0
1773 1 8.7692584204021067e+00 3.9860825402948151e+01 2.8215050017010963e+00 0 0 0
1803 1 1.1514148260614078e+01 4.2724373731927486e+01 2.8053756316012697e+00 0 -1 0
1772 1 1.0141234897839400e+01 4.1328428155309190e+01 1.2626186083658364e+00 0 0 0
2223 1 1.1437800929086178e+01 3.9984715896984703e+01 2.8243869312413432e+00 0 0 0
2253 1 1.4326921457145358e+01 4.2752388195103705e+01 2.8385219627424600e+00 0 -1 0
2222 1 1.2884754265093836e+01 4.1396507217970495e+01 1.3284884666978072e+00 0 0 0
2673 1 1.4420606411477953e+01 3.9896981436168595e+01 2.8014128501231421e+00 0 0 0
2251 1 1.4429814413475111e+01 4.2787083382942221e+01 5.9806118157377464e-02 0 -1 0
2672 1 1.5905242305121078e+01 4.1200840607791989e+01 1.3513858943711845e+00 0 0 0
2703 1 1.6953978076370607e+01 4.2695787335246713e+01 2.8364959634484768e+00 0 -1 0
3122 1 1.8696749938751189e+01 4.1383283574988347e+01 1.4379628878726782e+00 0 0 0
3123 1 1.7288529050226447e+01 3.9887614709381801e+01 2.9645777124024728e+00 0 0 0
3121 1 1.7325951809163723e+01 3.9898969107984044e+01 1.5525969905118048e-03 0 0 0
2701 1 1.7268466412648333e+01 4.2773669384559909e+01 2.9729684738101232e-02 0 -1 0
3153 1 2.0144870196843904e+01 4.2794859068534059e+01 2.7641916174477790e+00 0 -1 0
3573 1 1.9979391385820051e+01 3.9888032399813696e+01 2.8477401305953203e+00 0 0 0
3572 1 2.1415023479508285e+01 4.1315111252173295e+01 1.3553246751420103e+00 0 0 0
3603 1 2.2741324314402608e+01 4.2701985331991040e+01 2.7580646546142953e+00 0 -1 0
4022 1 2.4132850149795836e+01 4.1377005152188488e+01 1.4409602708413951e+00 0 0 0
4023 1 2.2785740650327995e+01 3.9943463592825893e+01 2.8025173637756406e+00 0 0 0
4053 1 2.5598127029032270e+01 4.2636593298821744e+01 2.8653371298819108e+00 0 -1 0
4472 1 2.6938025633520436e+01 4.1362716086952339e+01 1.4150322650113476e+00 0 0 0
4473 1 2.5641557509899936e+01 3.9836277936460924e+01 2.8556398163887811e+00 0 0 0