LAMMPS data file via write_data, version 7 Aug 2019, timestep = 28000

9000 atoms
1 atom types

-1.2454929418246455e-04 5.7106124549294186e+01 xlo xhi
-9.3411970636848420e-05 4.2829593411970642e+01 ylo yhi
-9.3411970636848420e-05 4.2829593411970642e+01 zlo zhi

Masses

1 56

Atoms # atomic

2 1 1.5718192161396929e+00 1.4690460029232195e+00 1.4591591149798617e+00 0 0 0
483 1 2.8913111845484973e+00 2.8481423871255127e+00 2.9206448067972874e+00 0 0 0
453 1 2.9112266376254068e+00 1.4866165468285533e-01 2.9399930727618813e+00 0 0 0
33 1 1.0651726427048654e-01 2.8138720476151851e+00 2.8774201795722312e+00 0 0 0
3 1 5.4837203235749143e-03 1.5845531843961552e-01 2.7556039771125365e+00 0 0 0
452 1 4.3246627682236740e+00 1.4153630559765833e+00 1.3853315591545823e+00 0 0 0
933 1 5.8384656546122287e+00 2.8085122154846514e+00 2.7279432025490706e+00 0 0 0
901 1 5.9602832886033932e+00 2.2392808466896903e-02 2.6522708333757805e-02 0 0 0
902 1 7.3449836409939318e+00 1.4159049603684448e+00 1.5081794512808699e+00 0 0 0
1383 1 8.7600321442862175e+00 2.9066017064740488e+00 2.6940170006870061e+00 0 0 0
1353 1 8.8750315417648924e+00 6.8338017944924445e-03 2.8196992173403994e+00 0 0 0
1352 1 1.0143608588601108e+01 1.4579751254252067e+00 1.3694927321581725e+00 0 0 0
1833 1 1.1501466825372640e+01 2.8026488456667149e+00 2.7432977610734857e+00 0 0 0
1803 1 1.1660768950953297e+01 7.5773553643536218e-02 2.9244375078459650e+00 0 0 0
1801 1 1.1623654421691683e+01 1.1726198850195857e-01 1.7492236957139085e-01 0 0 0
1802 1 1.2962023731205747e+01 1.5164586685178743e+00 1.3661332881238346e+00 0 0 0
2283 1 1.4326810930646594e+01 3.0087692622547482e+00 2.7696699258523427e+00 0 0 0
2253 1 1.4492380121227391e+01 1.2714775424272937e-01 2.8213492794125883e+00 0 0 0
2251 1 1.4547219861285845e+01 3.0417165664665902e-02 1.4353080642773042e-01 0 0 0
2281 1 1.4589360658276155e+01 2.7896652636477239e+00 3.2055543440989709e-03 0 0 0
2252 1 1.5901391885655890e+01 1.3981615371672320e+00 1.4844017263044846e+00 0 0 0
2702 1 1.8654517775726667e+01 1.4476160028067884e+00 1.3019263198231583e+00 0 0 0
2733 1 1.7278566559165085e+01 2.9551568853885795e+00 2.8370355693323384e+00 0 0 0
2703 1 1.7331451747206799e+01 5.5763295782689681e-02 2.7428670263027053e+00 0 0 0
2731 1 1.7249191643210402e+01 2.9630970378001940e+00 1.0337871238149887e-02 0 0 0
3183 1 2.0212690518454767e+01 2.9709560648180329e+00 2.7993784100554171e+00 0 0 0
3152 1 2.1575236550582833e+01 1.4319121294302197e+00 1.5007054690874480e+00 0 0 0
3151 1 2.0037570441866606e+01 1.2465778398816241e-01 8.0365543354063238e-03 0 0 0
3181 1 1.9997696791897326e+01 3.0237573180140225e+00 1.1063930016869250e-01 0 0 0
3602 1 2.4358375322735480e+01 1.3285124985703125e+00 1.5068225440317820e+00 0 0 0
3633 1 2.2722743121008669e+01 2.9766086423299414e+00 2.8651128081418022e+00 0 0 0
3631 1 2.2960055149284599e+01 2.9026588537533518e+00 8.1934308144134604e-02 0 0 0
4052 1 2.7037162816388793e+01 1.5241945530513434e+00 1.4052773038023367e+00 0 0 0
4083 1 2.5803448003872109e+01 3.0207309312535857e+00 2.8787971382563344e+00 0 0 0
4053 1 2.5701738837335849e+01 1.0396645314393282e-01 2.7864332366789917e+00 0 0 0
4081 1 2.5649418491612934e+01 2.9303263248084011e+00 4.3572939422919607e-02 0 0 0
4533 1 2.8472918983910322e+01 2.9218471712239982e+00 2.8682247662103193e+00 0 0 0
32 1 1.4448044067870254e+00 4.2658901398621438e+00 1.3736900133232415e+00 0 0 0
513 1 2.9482362937564455e+00 5.6480807096629375e+00 2.8854658167235088e+00 0 0 0
63 1 1.0482499145295085e-01 5.6004388600211694e+00 2.8037750121564269e+00 0 0 0
482 1 4.3149687717409426e+00 4.2080461483230902e+00 1.4865943549939691e+00 0 0 0
963 1 6.0099656174558911e+00 5.5859617112107278e+00 2.8910302901240850e+00 0 0 0
961 1 5.8024030876982327e+00 5.5749691833080677e+00 1.8817066847229625e-03 0 0 0
932 1 7.2652696142560211e+00 4.2444557095646838e+00 1.4384579852362434e+00 0 0 0
1413 1 8.9011773063685276e+00 5.6532910744949705e+00 2.8049312625299962e+00 0 0 0
1382 1 1.0196620497306341e+01 4.3087263333824239e+00 1.2745615281096327e+00 0 0 0
1863 1 1.1593725482704739e+01 5.6960552586544768e+00 2.6732358280531994e+00 0 0 0
1832 1 1.2960712439451855e+01 4.1561735186532776e+00 1.2142569709535467e+00 0 0 0
2313 1 1.4391096738023778e+01 5.6016868901277554e+00 2.7916492401509401e+00 0 0 0
2282 1 1.5858549990181499e+01 4.3209571585837780e+00 1.3796473148643558e+00 0 0 0
2311 1 1.4508715960416104e+01 5.7024800848739732e+00 1.0579455422004003e-02 0 0 0
2732 1 1.8662593398358869e+01 4.3798326799526164e+00 1.4562377026487163e+00 0 0 0
2763 1 1.7135164364676115e+01 5.7121947576920187e+00 2.7938185828121656e+00 0 0 0
3213 1 2.0067894034221283e+01 5.8226547629961045e+00 2.8463098607030535e+00 0 0 0
3182 1 2.1516851419095534e+01 4.4210521409766645e+00 1.3742704056515382e+00 0 0 0
3211 1 1.9988100744339864e+01 5.8399525068766218e+00 4.8890071727015538e-02 0 0 0
3632 1 2.4273367477878882e+01 4.2968224592093280e+00 1.4404829445870375e+00 0 0 0
3663 1 2.2856384632581452e+01 5.7604263554775521e+00 2.8505399662368536e+00 0 0 0
4082 1 2.7129606291121306e+01 4.3069469943888503e+00 1.5164151390867189e+00 0 0 0
4113 1 2.5690992044115838e+01 5.7929001980582537e+00 2.8411705184215021e+00 0 0 0
62 1 1.5690127593635899e+00 7.0403721828961086e+00 1.3869813889543152e+00 0 0 0
543 1 2.9132495852646434e+00 8.3674399573164244e+00 2.8358057527347000e+00 0 0 0
91 1 1.3903179290759704e-01 8.5209279474744051e+00 2.8375065805015254e-02 0 0 0
512 1 4.4184593456452150e+00 7.1051117189479580e+00 1.4798800928186842e+00 0 0 0
993 1 5.8646535251553678e+00 8.4364253671562839e+00 2.8547171432445917e+00 0 0 0
962 1 7.3650772759335892e+00 7.0158128534436806e+00 1.4262096234514821e+00 0 0 0
1443 1 8.7992921592133850e+00 8.5897959682648573e+00 2.7856939371153340e+00 0 0 0
1412 1 1.0204667890461984e+01 7.0844407372252780e+00 1.3643196277144751e+00 0 0 0
1893 1 1.1706524448614385e+01 8.5032248093676301e+00 2.8271378759523165e+00 0 0 0
1442 1 1.0236285267310048e+01 9.8734289105927804e+00 1.2980865017208809e+00 0 0 0
1862 1 1.3057800260445777e+01 7.0452670631852952e+00 1.4578487074463791e+00 0 0 0
2343 1 1.4487070000615875e+01 8.5508462518999195e+00 2.7987205428290811e+00 0 0 0
2312 1 1.5777159902930967e+01 7.0745232896110197e+00 1.3711713573576987e+00 0 0 0
2341 1 1.4400651717863129e+01 8.4343184545103789e+00 4.3902993007380195e-02 0 0 0
2762 1 1.8691257948731625e+01 7.1392262563046396e+00 1.4333441399646023e+00 0 0 0
2793 1 1.7176519656942965e+01 8.5303063901211171e+00 2.8547640051674734e+00 0 0 0
2791 1 1.7137047249452721e+01 8.6151415315431912e+00 2.7479395247191007e-02 0 0 0
3212 1 2.1496240269910942e+01 7.1388162664170514e+00 1.4008761518245980e+00 0 0 0
3243 1 2.0103496232595639e+01 8.6524406446267239e+00 2.8296460885326331e+00 0 0 0
3241 1 2.0080439822960837e+01 8.5387375909365879e+00 1.9337901431018398e-01 0 0 0
3662 1 2.4174651395059932e+01 7.3437984006498418e+00 1.3648168502901887e+00 0 0 0
3693 1 2.2891419146426063e+01 8.4857395717082333e+00 2.8930275285996760e+00 0 0 0
3691 1 2.2878589304078218e+01 8.5511588076345166e+00 3.4281680161427630e-03 0 0 0
4112 1 2.7032829247094178e+01 7.0538169772759698e+00 1.3526343460339707e+00 0 0 0
4143 1 2.5777226895207260e+01 8.4786059529044078e+00 2.8114868774700925e+00 0 0 0
4593 1 2.8512776254765345e+01 8.5109277855863024e+00 2.9220565293822158e+00 0 0 0
92 1 1.6243684278241128e+00 1.0008305755556652e+01 1.4532552208070710e+00 0 0 0
573 1 3.1565167809529400e+00 1.1319754810732553e+01 2.8763610997531424e+00 0 0 0
122 1 1.7250849962775237e+00 1.2687814578864783e+01 1.3390980537718793e+00 0 0 0
123 1 2.1738100160135926e-01 1.1429289662293268e+01 2.8536116497383572e+00 0 0 0
121 1 6.2343866090957406e-02 1.1411906082485791e+01 8.5613405968224754e-02 0 0 0
542 1 4.4213924457815628e+00 1.0084077973794159e+01 1.3378725508668314e+00 0 0 0
1023 1 5.8883143361721206e+00 1.1512998754515843e+01 2.8166103512754668e+00 0 0 0
572 1 4.5183098665820784e+00 1.2748408695814367e+01 1.2880618263067238e+00 0 0 0
992 1 7.3307086747279744e+00 1.0055579498195787e+01 1.3805668549062116e+00 0 0 0
1473 1 8.8206322988758998e+00 1.1426776261749904e+01 2.8088550203337110e+00 0 0 0
1022 1 7.3343382944772726e+00 1.2821715841149818e+01 1.2822465606281264e+00 0 0 0
1923 1 1.1516740273260515e+01 1.1343472464163440e+01 2.7870479862579960e+00 0 0 0
1472 1 1.0156470181752827e+01 1.2862334719418810e+01 1.2485469844881458e+00 0 0 0
1892 1 1.3063697541757104e+01 9.9903141816998566e+00 1.3886397468873088e+00 0 0 0
1922 1 1.3016969470227927e+01 1.2922946719633373e+01 1.4077986971601357e+00 0 0 0
2373 1 1.4495953010818194e+01 1.1496851513185179e+01 2.7516517362895767e+00 0 0 0
2342 1 1.5749277090742432e+01 9.9057048122191169e+00 1.3434665733784454e+00 0 0 0
2372 1 1.5857545751566736e+01 1.3001346018487313e+01 1.4686078501543465e+00 0 0 0
2371 1 1.4510840794875360e+01 1.1491298632508160e+01 5.4896515844376381e-02 0 0 0
2792 1 1.8607894595828505e+01 9.9830287077163309e+00 1.4574431620032049e+00 0 0 0
2823 1 1.7156491281045497e+01 1.1396015577640673e+01 2.8072164028805737e+00 0 0 0
2822 1 1.8645580499617854e+01 1.2916713243042725e+01 1.4650227107941702e+00 0 0 0
2821 1 1.7223996471588940e+01 1.1439806882060239e+01 1.3035068511601107e-02 0 0 0
3244 1 2.1464460274800444e+01 9.9519689402149663e+00 1.4190724746435104e+00 0 0 0
3273 1 2.0080079993406756e+01 1.1466025348213822e+01 2.8386954619320939e+00 0 0 0
3272 1 2.1529016715280054e+01 1.2880920143874501e+01 1.5136984447021333e+00 0 0 0
3271 1 2.0100773440765551e+01 1.1485629789296777e+01 1.4598190328666152e-01 0 0 0
3692 1 2.4231562943632067e+01 9.9029697646519619e+00 1.3346852095712529e+00 0 0 0
3722 1 2.2871549782022687e+01 1.1450499282417415e+01 2.8939347464974561e+00 0 0 0
4201 1 2.4276355807132461e+01 1.2781513137593350e+01 1.4017420569899941e+00 0 0 0
4142 1 2.7064234641024914e+01 9.9238557931177294e+00 1.4385995967059073e+00 0 0 0
4173 1 2.5833688543537953e+01 1.1413989690101713e+01 2.8563118993540897e+00 0 0 0
4172 1 2.7197685850880625e+01 1.2870957142173243e+01 1.3602877891159448e+00 0 0 0
4171 1 2.5758310297983417e+01 1.1421798266159948e+01 4.1335099443204737e-02 0 0 0
603 1 3.0301381670456906e+00 1.4139889371705099e+01 2.7429003509834504e+00 0 0 0
152 1 1.5810463769314427e+00 1.5623619860365393e+01 1.2342331486746643e+00 0 0 0
153 1 1.6317898856728891e-01 1.4226764784785059e+01 2.7163333287112961e+00 0 0 0
1053 1 5.9423895276666867e+00 1.4228399390459900e+01 2.7797391128327016e+00 0 0 0
602 1 4.5202759944737112e+00 1.5656399607139031e+01 1.4032497602626632e+00 0 0 0
1503 1 8.7693333045968824e+00 1.4267092447921058e+01 2.7886476495838211e+00 0 0 0
1052 1 7.2073624284150855e+00 1.5656192972163018e+01 1.4596393038274318e+00 0 0 0
1501 1 8.6653212340449208e+00 1.4251840504923996e+01 6.0671598880944089e-02 0 0 0
1953 1 1.1695132722380826e+01 1.4296120192112047e+01 2.8135981941426267e+00 0 0 0
1502 1 1.0236080489349265e+01 1.5747500981808043e+01 1.4152744008160294e+00 0 0 0
1952 1 1.3041731295847404e+01 1.5660103070653150e+01 1.3522491673491179e+00 0 0 0
2403 1 1.4456887192459543e+01 1.4318137682578884e+01 2.8529959176827044e+00 0 0 0
2401 1 1.4468752691701400e+01 1.4415736408676844e+01 6.0936722467183707e-02 0 0 0
2402 1 1.5880875911150108e+01 1.5792732490296951e+01 1.4080647505015726e+00 0 0 0
2853 1 1.7241533904022102e+01 1.4357768535963691e+01 2.9323724350737304e+00 0 0 0
2852 1 1.8720468831429972e+01 1.5686540551197689e+01 1.5239025859362187e+00 0 0 0
2851 1 1.7301460939843516e+01 1.4359474341176886e+01 5.1939403836726683e-02 0 0 0
3303 1 2.0103503305418204e+01 1.4395105274870875e+01 2.8659966471340650e+00 0 0 0
3302 1 2.1505885801958456e+01 1.5775640194409508e+01 1.4445441051588070e+00 0 0 0
3301 1 2.0044630788445801e+01 1.4334249864713927e+01 3.5287625761029270e-02 0 0 0
3753 1 2.2975756628584151e+01 1.4302531338586157e+01 2.7638200068175629e+00 0 0 0
3752 1 2.4316785331382853e+01 1.5725441175169578e+01 1.4545205760578135e+00 0 0 0
3751 1 2.2918353438088790e+01 1.4202677751592194e+01 9.1293548890919781e-03 0 0 0
4202 1 2.7093466563825530e+01 1.5776659031019520e+01 1.4505687979694524e+00 0 0 0
4203 1 2.5724958728248421e+01 1.4258601301587134e+01 2.7406129420454985e+00 0 0 0
182 1 1.4722922605710536e+00 1.8486411326521221e+01 1.2968879030103893e+00 0 0 0
633 1 3.0608694503837475e+00 1.7211813370875021e+01 2.7610740259110602e+00 0 0 0
183 1 2.3183835729097876e-02 1.7011195188285345e+01 2.5837750135351802e+00 0 0 0
632 1 4.3747599662611405e+00 1.8645058581863680e+01 1.3440730490087558e+00 0 0 0
1083 1 5.7977389619767585e+00 1.7158474005991373e+01 2.7449930630162234e+00 0 0 0
1082 1 7.2995540983765528e+00 1.8419790226391104e+01 1.2582801426244445e+00 0 0 0
1533 1 8.7801386042353098e+00 1.7152696122763086e+01 2.8004861136382124e+00 0 0 0
1532 1 1.0248711211093974e+01 1.8558543151795988e+01 1.2545414640328243e+00 0 0 0
1983 1 1.1603924546358233e+01 1.7118972057757844e+01 2.7453411977596498e+00 0 0 0
1982 1 1.3039794828552107e+01 1.8586900942683972e+01 1.3176938494131225e+00 0 0 0
2433 1 1.4480409444431983e+01 1.7165866646196005e+01 2.7106967318937336e+00 0 0 0
2431 1 1.4446379779591416e+01 1.7150147112374796e+01 2.7056199981444706e-02 0 0 0
2432 1 1.5961856746874638e+01 1.8663640504050733e+01 1.4003334200628630e+00 0 0 0
2882 1 1.8685871078634349e+01 1.8513978077202751e+01 1.3901092784904554e+00 0 0 0
2883 1 1.7330779176451589e+01 1.7225067158273060e+01 2.9160461782681453e+00 0 0 0
3333 1 2.0159271865131455e+01 1.7282016476867234e+01 2.9578081930216982e+00 0 0 0
3332 1 2.1589761309399595e+01 1.8442888116232226e+01 1.3136097826792266e+00 0 0 0
3782 1 2.4435359572620378e+01 1.8507865653013461e+01 1.5022698964676731e+00 0 0 0
3783 1 2.3005007224784212e+01 1.7171636924144604e+01 2.9704216053001047e+00 0 0 0
3781 1 2.3040878222290818e+01 1.7138226869858872e+01 1.7665561352600889e-02 0 0 0
4233 1 2.5814626214448516e+01 1.7050209237236057e+01 2.9677231865233917e+00 0 0 0
4683 1 2.7196078730510681e+01 1.8541631109319400e+01 1.4879077285544715e+00 0 0 0
212 1 1.4780692753355391e+00 2.1403767993435089e+01 1.4485703616869341e+00 0 0 0
663 1 2.8827660442289349e+00 1.9925633131290834e+01 2.8369091934536952e+00 0 0 0
693 1 3.0131296854038307e+00 2.2615585234544209e+01 2.7882636943356975e+00 0 0 0
691 1 2.9501144754986637e+00 2.2958965886868384e+01 2.4412082939683444e-02 0 0 0
662 1 4.2766818208509845e+00 2.1319192274460669e+01 1.2842686856906909e+00 0 0 0
1113 1 5.8739810941503832e+00 2.0026984922938592e+01 2.7312159905832472e+00 0 0 0
1143 1 5.7863795866340828e+00 2.2796047570381990e+01 2.7357422492127927e+00 0 0 0
1141 1 5.9095626168460340e+00 2.2870871773423818e+01 8.0485989388421331e-02 0 0 0
1112 1 7.2735622575762324e+00 2.1407601047770513e+01 1.3163829368883555e+00 0 0 0
1563 1 8.8384837751576910e+00 1.9911187077129327e+01 2.7131952138082971e+00 0 0 0
1593 1 8.6877423145581094e+00 2.2842648501630343e+01 2.7719284200200973e+00 0 0 0
1591 1 8.8644158473373746e+00 2.2805549964314270e+01 1.2196263302947677e-01 0 0 0
2013 1 1.1560515344096141e+01 2.0039796692493553e+01 2.7107526128238191e+00 0 0 0
1562 1 1.0118338847240805e+01 2.1418445138110567e+01 1.4497291241915709e+00 0 0 0
2043 1 1.1568464660718499e+01 2.2824825968373634e+01 2.8153510054292941e+00 0 0 0
2041 1 1.1584967199270183e+01 2.2818518956117959e+01 7.1577459364611684e-02 0 0 0
2012 1 1.2926785857257098e+01 2.1423749769555933e+01 1.3671897821691630e+00 0 0 0
2463 1 1.4454050223924886e+01 2.0138165484547802e+01 2.7327571649379587e+00 0 0 0
2493 1 1.4460767586112587e+01 2.2854610009711408e+01 2.8172414943577535e+00 0 0 0
2462 1 1.5914772455308213e+01 2.1419434353303444e+01 1.2899109196790484e+00 0 0 0
2912 1 1.8730124403003092e+01 2.1385007672116764e+01 1.3290895162063228e+00 0 0 0
2913 1 1.7310390220323299e+01 2.0136633009354789e+01 2.7337182659743200e+00 0 0 0
2943 1 1.7333632746292142e+01 2.2836500503313118e+01 2.7150476662145717e+00 0 0 0
3363 1 2.0234706772502108e+01 1.9905476729711243e+01 2.7718075162232010e+00 0 0 0
3393 1 2.0038812230055104e+01 2.2867497351466032e+01 2.6572859724455955e+00 0 0 0
3362 1 2.1534841099410066e+01 2.1337461025575312e+01 1.2122232167170903e+00 0 0 0
3812 1 2.4166113652934438e+01 2.1452282891740186e+01 1.4707376242436974e+00 0 0 0
3813 1 2.2866092909629998e+01 1.9912527613141425e+01 2.6817281943110216e+00 0 0 0
3843 1 2.2736003863563070e+01 2.2914775243262014e+01 2.7854192226178887e+00 0 0 0
4263 1 2.5718113728199153e+01 1.9973877488147163e+01 2.9469109916988887e+00 0 0 0
4262 1 2.7178202799939648e+01 2.1432298894468541e+01 1.4536665019696882e+00 0 0 0
4293 1 2.5752941421748371e+01 2.2755109922805808e+01 2.7350021961590718e+00 0 0 0
4232 1 2.5700096555680350e+01 2.0057462543463355e+01 8.0093589678223540e-02 0 0 0
242 1 1.4905284188489241e+00 2.4153870045696575e+01 1.4901448991476001e+00 0 0 0
723 1 2.9691270912444714e+00 2.5603026520697600e+01 2.9577837074879678e+00 0 0 0
721 1 2.8130622160977712e+00 2.5624403249775472e+01 4.5840006305598160e-02 0 0 0
692 1 4.3376551616159089e+00 2.4254314679270475e+01 1.4453465144370932e+00 0 0 0
1173 1 5.8806398737163290e+00 2.5762684036203076e+01 2.7960922233525030e+00 0 0 0
1171 1 5.8233283171514110e+00 2.5804883677981127e+01 4.6964539485792045e-02 0 0 0
1142 1 7.2308646485031547e+00 2.4233021101452767e+01 1.3890850101224477e+00 0 0 0
1623 1 8.8017938017344672e+00 2.5591661848719340e+01 2.8520806369261065e+00 0 0 0
1592 1 1.0223494929413949e+01 2.4263469600062859e+01 1.4130347439748561e+00 0 0 0
2073 1 1.1726744047040290e+01 2.5580846377157261e+01 2.7922418873550394e+00 0 0 0
2042 1 1.3094776554652828e+01 2.4200467675960212e+01 1.3738273990926015e+00 0 0 0
2523 1 1.4613598460907447e+01 2.5554765967794598e+01 2.8058227058319516e+00 0 0 0
2492 1 1.5972384734627202e+01 2.4122997666043748e+01 1.3826353920865231e+00 0 0 0
2942 1 1.8628185471498934e+01 2.4142767415749411e+01 1.2893982646887847e+00 0 0 0
2973 1 1.7237117007287477e+01 2.5612502442411472e+01 2.8274536218024471e+00 0 0 0
2971 1 1.7147321557175012e+01 2.5645594538939047e+01 1.6158543690892202e-02 0 0 0
3423 1 2.0038843057678172e+01 2.5656791384760162e+01 2.7539743728466011e+00 0 0 0
3392 1 2.1422565264283453e+01 2.4319588368896039e+01 1.3222502577496513e+00 0 0 0
3842 1 2.4266834742776226e+01 2.4362646659874201e+01 1.3828597028628589e+00 0 0 0
3873 1 2.2851670622818872e+01 2.5563650169632378e+01 2.8158505950312134e+00 0 0 0
4292 1 2.7231018428570280e+01 2.4284594005895631e+01 1.3640355727443711e+00 0 0 0
4323 1 2.5649965512798374e+01 2.5745633923584169e+01 2.8160420163436819e+00 0 0 0
272 1 1.3253152184098371e+00 2.7053994936714236e+01 1.5129678531049915e+00 0 0 0
753 1 3.0080942791345677e+00 2.8472861501662990e+01 2.8275599461451169e+00 0 0 0
301 1 2.9224620563965686e-03 2.8533224252296748e+01 3.7333195296839941e-02 0 0 0
722 1 4.3444341033020182e+00 2.7109956662086741e+01 1.4192646994761331e+00 0 0 0
1203 1 5.8846768098811157e+00 2.8528601338164762e+01 2.8320048856431259e+00 0 0 0
1201 1 5.8938514977461969e+00 2.8453181412104243e+01 4.6845390521959018e-02 0 0 0
1172 1 7.3319415281331120e+00 2.7167329621263931e+01 1.5396358460095023e+00 0 0 0
1653 1 8.9311629942327269e+00 2.8547578056963633e+01 2.9164478150358253e+00 0 0 0
1622 1 1.0117398216541687e+01 2.7137360676959037e+01 1.3962158641792752e+00 0 0 0
2103 1 1.1755525457648458e+01 2.8430572295049281e+01 2.8429480003127860e+00 0 0 0
2101 1 1.1709951811254655e+01 2.8537433888509376e+01 1.6430420944303847e-01 0 0 0
2072 1 1.3159059827871763e+01 2.7072495231626732e+01 1.5377719484615930e+00 0 0 0
2553 1 1.4410252617192342e+01 2.8717139860769780e+01 2.8748634090123040e+00 0 0 0
2522 1 1.5705784830331648e+01 2.6983560357782160e+01 1.4415029327282467e+00 0 0 0
2551 1 1.4482724584681769e+01 2.8594000406161179e+01 1.3978844711510091e-01 0 0 0
2972 1 1.8593355010520007e+01 2.7127276006336380e+01 1.3842504757451699e+00 0 0 0
3003 1 1.7292588233544940e+01 2.8404926822472895e+01 2.8812852850104562e+00 0 0 0
3001 1 1.7301931239168251e+01 2.8404670505624289e+01 1.0651827840244721e-01 0 0 0
3422 1 2.1434116499245686e+01 2.7059348015038491e+01 1.3355311265430605e+00 0 0 0
3453 1 2.0041766266554738e+01 2.8543227767124865e+01 2.7995235851593558e+00 0 0 0
3451 1 2.0065162889295284e+01 2.8495957383806189e+01 1.2200579172720438e-02 0 0 0
3872 1 2.4277526127762382e+01 2.7127346544949859e+01 1.5023411936098325e+00 0 0 0
3903 1 2.2942225339814676e+01 2.8531110646637664e+01 2.7721557698674140e+00 0 0 0
3901 1 2.2917809250788707e+01 2.8707624468815180e+01 1.0768546624024670e-01 0 0 0
4322 1 2.7193080812149731e+01 2.7085809796532310e+01 1.3660329572754055e+00 0 0 0
4353 1 2.5507961454268603e+01 2.8440195892119949e+01 2.7236331665303379e+00 0 0 0
302 1 1.5725104608598772e+00 3.0006402891315023e+01 1.4203375416509789e+00 0 0 0
783 1 2.9341479696111250e+00 3.1349262898182786e+01 2.9745997888676379e+00 0 0 0
332 1 1.5242493057021853e+00 3.2899750722551332e+01 1.5158867252766530e+00 0 0 0
333 1 5.6808873507232314e-02 3.1244503260385876e+01 2.9542355620595053e+00 0 0 0
752 1 4.3823877936375819e+00 2.9887126751057984e+01 1.3734074750651182e+00 0 0 0
1233 1 5.8711627476033019e+00 3.1210354534380990e+01 2.8393958035025801e+00 0 0 0
782 1 4.5570175607195020e+00 3.2675849318719742e+01 1.4287603952058376e+00 0 0 0
1231 1 6.0307726074938977e+00 3.1377564479754898e+01 9.2612089215819537e-02 0 0 0
1202 1 7.2807965311903828e+00 2.9879392504937623e+01 1.5248221285130439e+00 0 0 0
1683 1 8.8624361080674454e+00 3.1390379267990692e+01 2.9600014343537313e+00 0 0 0
1232 1 7.4351373335246009e+00 3.2811022796395520e+01 1.4637434661487088e+00 0 0 0
1652 1 1.0299207811736053e+01 2.9879568440801382e+01 1.4714224652137728e+00 0 0 0
2133 1 1.1746895329648860e+01 3.1449963121408572e+01 2.7539730503329825e+00 0 0 0
1682 1 1.0219293268740493e+01 3.2821667147568263e+01 1.4270143070411094e+00 0 0 0
2102 1 1.3167310529492282e+01 3.0137738626289448e+01 1.5388399180835863e+00 0 0 0
2132 1 1.3063790340095224e+01 3.2844497187071966e+01 1.3946581953813515e+00 0 0 0
2583 1 1.4520059979445422e+01 3.1556317850579582e+01 2.8892006065240010e+00 0 0 0
2581 1 1.4425967522223992e+01 3.1579215273136185e+01 1.1586840999122927e-01 0 0 0
2552 1 1.5924667975158973e+01 3.0064052646835464e+01 1.5332051197246088e+00 0 0 0
2582 1 1.5941076625208531e+01 3.2896535846084845e+01 1.5000929636333962e+00 0 0 0
3002 1 1.8627395647105612e+01 2.9924044646835110e+01 1.4554385081227776e+00 0 0 0
3032 1 1.8706134472883864e+01 3.2872426594858212e+01 1.4345038509949486e+00 0 0 0
3033 1 1.7309796041281942e+01 3.1382455871596509e+01 2.8422798526067510e+00 0 0 0
3031 1 1.7325049824581569e+01 3.1360126801336104e+01 2.8183767989020225e-02 0 0 0
3452 1 2.1510630242087281e+01 2.9985924700462970e+01 1.4373999685500936e+00 0 0 0
3483 1 2.0089393818696045e+01 3.1407897875791708e+01 2.8633867554407253e+00 0 0 0
3931 1 2.1481010954224963e+01 3.2777597951100319e+01 1.5375352286199035e+00 0 0 0
3481 1 2.0157858641743211e+01 3.1332243397753366e+01 5.3831121220510120e-02 0 0 0
3902 1 2.4312794070025213e+01 3.0010256640818231e+01 1.3486709486021276e+00 0 0 0
3933 1 2.2986720478728433e+01 3.1396938754408563e+01 2.8684960454138611e+00 0 0 0
3932 1 2.4270405105313547e+01 3.2813768273121653e+01 1.4550085077888750e+00 0 0 0
3930 1 2.2865227491730245e+01 3.1552236613926993e+01 9.3618324061338853e-02 0 0 1
4352 1 2.7169516385304998e+01 2.9900251060316840e+01 1.4612844482406968e+00 0 0 0
4383 1 2.5735774100887948e+01 3.1443188634520226e+01 2.8828408016053668e+00 0 0 0
4382 1 2.7102212661726458e+01 3.2763681532166018e+01 1.4104803583604411e+00 0 0 0
4833 1 2.8475198108136794e+01 3.1364202320646616e+01 2.7456259833442234e+00 0 0 0
813 1 2.9501933152232005e+00 3.4229888927666693e+01 2.8413744865446886e+00 0 0 0
362 1 1.5837719148524951e+00 3.5786212356781235e+01 1.5233847591910283e+00 0 0 0
361 1 2.1331108394443250e-02 3.4245874081215476e+01 1.5605144806202614e-01 0 0 0
363 1 6.8735510673349987e-02 3.4577892301413172e+01 2.9102533748596029e+00 0 0 0
811 1 2.9303621543706613e+00 3.4284914188770159e+01 7.1620390170515691e-02 0 0 0
1263 1 5.8354310344053424e+00 3.4171227644440535e+01 2.7366375507104403e+00 0 0 0
812 1 4.3900513146649995e+00 3.5738127885503289e+01 1.4160639719346821e+00 0 0 0
1261 1 6.0687434776119167e+00 3.4262579849078406e+01 1.0369113134746441e-01 0 0 0
1713 1 8.7417566480403170e+00 3.4311151866856434e+01 2.8514346187559410e+00 0 0 0
1262 1 7.2999740610553623e+00 3.5776558449601154e+01 1.5871050246597154e+00 0 0 0
1711 1 8.6923724084136627e+00 3.4292001557936715e+01 1.8581636799084578e-01 0 0 0
2163 1 1.1577490260387767e+01 3.4308623077814048e+01 2.9538850092678368e+00 0 0 0
1712 1 1.0267751416587503e+01 3.5692743848062221e+01 1.5565877198980425e+00 0 0 0
2161 1 1.1528431491948105e+01 3.4330777219647175e+01 1.0975145856960467e-02 0 0 0
2162 1 1.3033148567821385e+01 3.5477626909625869e+01 1.2390424486025673e+00 0 0 0
2613 1 1.4450504831779746e+01 3.4235166172957619e+01 2.8052256538254392e+00 0 0 0
2611 1 1.4565490742440119e+01 3.4255955645688971e+01 5.1998137509791320e-02 0 0 0
2612 1 1.5922611791624238e+01 3.5756473996618908e+01 1.5563056284688896e+00 0 0 0
3063 1 1.7257168230131029e+01 3.4354132856163119e+01 2.8606829986740907e+00 0 0 0
3062 1 1.8672228542063063e+01 3.5666267588596625e+01 1.4221598869663592e+00 0 0 0
3482 1 2.0155584997290354e+01 3.4216382947092001e+01 2.9042494431667167e+00 0 0 0
3512 1 2.1631366090748301e+01 3.5674567747828519e+01 1.5222541881671354e+00 0 0 0
3511 1 2.0118076555014969e+01 3.4357283023151709e+01 4.6038634304720633e-02 0 0 0
3963 1 2.2913852933913752e+01 3.4198463018927029e+01 2.8636746243791658e+00 0 0 0
3962 1 2.4374966967347252e+01 3.5706217984150598e+01 1.3679165254330548e+00 0 0 0
3961 1 2.2824623611823903e+01 3.4141861258923825e+01 9.2964451106425372e-02 0 0 0
4413 1 2.5731836160417664e+01 3.4204299336090784e+01 2.8083749838108356e+00 0 0 0
4412 1 2.7295149236596746e+01 3.5670727561784730e+01 1.4248000417726894e+00 0 0 0
4861 1 2.8507780407613176e+01 3.4246555862212702e+01 5.7546917159555733e-02 0 0 0
4411 1 2.5751967265316285e+01 3.4124251693650820e+01 1.2577739059146609e-02 0 0 0
4863 1 2.8490158227000830e+01 3.4121951893635114e+01 2.8708367800835402e+00 0 0 0
392 1 1.4691151819080508e+00 3.8507542817743143e+01 1.3518214144724849e+00 0 0 0
843 1 2.8868056147695187e+00 3.7263022040909036e+01 2.7597403793899558e+00 0 0 0
841 1 2.9988583840625540e+00 3.7214621804589683e+01 2.4631526540879634e-02 0 0 0
393 1 1.3742549366575627e-01 3.7216351420134544e+01 2.9127104956856837e+00 0 0 0
391 1 5.2746772841025802e-02 3.7200794893240385e+01 1.7061609223668819e-01 0 0 0
842 1 4.4495234159972776e+00 3.8710043134946957e+01 1.4181734920922373e+00 0 0 0
1293 1 5.8399341646162659e+00 3.7156068271919580e+01 2.9162213136064863e+00 0 0 0
1291 1 5.8878259594422664e+00 3.7061218620708104e+01 3.7051801487505254e-02 0 0 0
1292 1 7.2280578981876333e+00 3.8724629054250187e+01 1.6715044239772228e+00 0 0 0
1743 1 8.7463872905307216e+00 3.7025945006475538e+01 2.9507212216956127e+00 0 0 0
1741 1 8.6319554796189646e+00 3.7269121133597167e+01 2.4299834257624467e-01 0 0 0
1742 1 1.0178394376105294e+01 3.8496662444623382e+01 1.4531967526685878e+00 0 0 0
2193 1 1.1600383463908351e+01 3.7129366913478833e+01 2.9268653207568409e+00 0 0 0
2191 1 1.1690958616420010e+01 3.7150203584770111e+01 1.2647406105079284e-01 0 0 0
2192 1 1.2985275619175379e+01 3.8695900354898853e+01 1.5133196837350096e+00 0 0 0
2643 1 1.4150056293457594e+01 3.6846439745675653e+01 2.6925071882200986e+00 0 0 0
2641 1 1.4381189716714728e+01 3.7174992155480879e+01 5.5604152170242109e-02 0 0 0
2642 1 1.5972738024975463e+01 3.8534790042626170e+01 1.3878605167630012e+00 0 0 0
3092 1 1.8847003842753598e+01 3.8363748189477519e+01 1.4654574081879002e+00 0 0 0
3093 1 1.7261760233432742e+01 3.7082534190583047e+01 3.0724536009309551e+00 0 0 0
3091 1 1.7283776793409633e+01 3.7159512268120892e+01 1.3680461710811898e-01 0 0 0
3543 1 2.0128984563664112e+01 3.7053874248194376e+01 2.8406420740713201e+00 0 0 0
3542 1 2.1490042677162897e+01 3.8642542442979050e+01 1.4163346655921307e+00 0 0 0
3541 1 2.0271113615337438e+01 3.7059181983621286e+01 4.6623272685260989e-03 0 0 0
3992 1 2.4373656377031264e+01 3.8448870574386206e+01 1.4423978247838889e+00 0 0 0
3993 1 2.3007974709165115e+01 3.7136608587060067e+01 2.8339182940487357e+00 0 0 0
3991 1 2.2855890130109064e+01 3.7142625443844878e+01 2.7340376935995891e-02 0 0 0
4442 1 2.7138096871934696e+01 3.8530071359009455e+01 1.3849263281128785e+00 0 0 0
4443 1 2.5724818308069565e+01 3.7071955239302937e+01 2.8299998369067652e+00 0 0 0
422 1 1.3207685256236337e+00 4.1354883902402435e+01 1.6283242208900195e+00 0 0 0
873 1 3.0006410770968510e+00 3.9994309858519173e+01 2.8791276770436691e+00 0 0 0
903 1 5.9253308761535779e+00 4.2786944109282814e+01 2.9243898949410894e+00 0 -1 0
872 1 4.4456326876800816e+00 4.1528256595318680e+01 1.3639949536422404e+00 0 0 0
1323 1 6.0136866846933072e+00 4.0095007822517530e+01 2.9083134996829489e+00 0 0 0
1321 1 5.8813881748775145e+00 3.9925042154345988e+01 5.8542846437796274e-02 0 0 0
1322 1 7.4499964828963341e+00 4.1407578858613803e+01 1.4608613549305864e+00 0 0 0
1773 1 8.7520578483452010e+00 3.9845078146204543e+01 2.8342883409076749e+00 0 0 0
1772 1 1.0153643611516754e+01 4.1351355376495519e+01 1.3672000434964497e+00 0 0 0
2223 1 1.1570422353416895e+01 4.0067442694145512e+01 2.8213091406984434e+00 0 0 0
2222 1 1.2936350723562661e+01 4.1498598887211045e+01 1.3616560325045293e+00 0 0 0
2673 1 1.4437920264301628e+01 4.0521124450636222e+01 2.7469911011068593e+00 0 0 0
2672 1 1.6081095453251098e+01 4.1327692201466562e+01 1.3594751316659908e+00 0 0 0
3122 1 1.8754070901273465e+01 4.1400559486682084e+01 1.4346721244449665e+00 0 0 0
3123 1 1.7307046150786430e+01 3.9950849114418034e+01 2.8855465177444422e+00 0 0 0
3153 1 2.0146626278823568e+01 4.2811744512893327e+01 2.8733212727363018e+00 0 -1 0
3571 1 2.0074888213109638e+01 3.9911409825256982e+01 2.1538941362762606e-01 0 0 0
3573 1 2.0120976461206418e+01 3.9915117843891636e+01 2.9657476347986997e+00 0 0 0
3572 1 2.1504850130817328e+01 4.1476169336657819e+01 1.3792387044031138e+00 0 0 0