LAMMPS data file via write_data, version 7 Aug 2019, timestep = 27000

9000 atoms
1 atom types

-1.2454929418246455e-04 5.7106124549294186e+01 xlo xhi
-9.3411970636848420e-05 4.2829593411970642e+01 ylo yhi
-9.3411970636848420e-05 4.2829593411970642e+01 zlo zhi

Masses

1 56

Atoms # atomic

2 1 1.4595667328503330e+00 1.5008747830277434e+00 1.4646122017969629e+00 0 0 0
483 1 2.7507882304899716e+00 3.0663767750525355e+00 2.8683790135595171e+00 0 0 0
453 1 2.8747568635439267e+00 2.8596935396086015e-02 2.9116443431954369e+00 0 0 0
1 1 6.9250308867575841e-02 7.1507453563698260e-03 5.5913148908036711e-02 0 0 0
3 1 5.2419772393605436e-02 6.7406041188908680e-02 2.8553088671886209e+00 0 0 0
33 1 1.2488551890606277e-01 2.8931188004576653e+00 2.8019873598464469e+00 0 0 0
481 1 2.8038287417755146e+00 2.9550212027894367e+00 1.7178498882879797e-01 0 0 0
31 1 2.2196312524037864e-02 2.8454569122762536e+00 2.1951331240372696e-01 0 0 0
452 1 4.1624863445970552e+00 1.4924309578560384e+00 1.5323506645087863e+00 0 0 0
933 1 5.6466954008186541e+00 2.8926821571034798e+00 2.8788142815166058e+00 0 0 0
931 1 5.5319643578516873e+00 2.7639341742840968e+00 6.4051563863848138e-02 0 0 0
903 1 5.6285841403162493e+00 1.2266703636965608e-01 2.9200952304660968e+00 0 0 0
901 1 5.5781917774483745e+00 1.0263248555518813e-01 4.3567870676837248e-02 0 0 0
902 1 7.0275218286454022e+00 1.4989917176496552e+00 1.6400834317437412e+00 0 0 0
1383 1 8.5904407595108232e+00 2.8660483396289682e+00 2.8758891004336338e+00 0 0 0
1353 1 8.4999053624874428e+00 1.5839706346158425e-01 2.9509183713665239e+00 0 0 0
1352 1 9.9090091467353876e+00 1.4181719046838339e+00 1.4238629135139700e+00 0 0 0
1833 1 1.1383478640494818e+01 2.9644156870455300e+00 2.8516160057276640e+00 0 0 0
1831 1 1.1370759061409162e+01 3.0050432372249087e+00 3.4685392050638260e-02 0 0 0
1802 1 1.2895897789342049e+01 1.4894312740211193e+00 1.4638821122950181e+00 0 0 0
2283 1 1.4160610354063680e+01 2.7631893225739059e+00 2.9693532263173412e+00 0 0 0
2251 1 1.4300677414493213e+01 2.1569553275001992e-02 3.3758042808675608e-02 0 0 0
2252 1 1.5623798430053746e+01 1.4388334909100915e+00 1.5210112303395447e+00 0 0 0
2702 1 1.8469127992969916e+01 1.3655070313807134e+00 1.4013966039386263e+00 0 0 0
2733 1 1.7107503340713393e+01 2.6962868146496319e+00 2.9466238369625972e+00 0 0 0
3183 1 2.0039035712246733e+01 2.9292691206014130e+00 2.9338223165847719e+00 0 0 0
3152 1 2.1291266549226119e+01 1.4717119373980549e+00 1.3233706550199940e+00 0 0 0
3151 1 1.9935287798378535e+01 1.3247246682567557e-01 1.6712639418248812e-02 0 0 0
3602 1 2.4293862186712129e+01 1.5391984530701062e+00 1.3864373484644645e+00 0 0 0
3633 1 2.2767900818600754e+01 2.8052295793390671e+00 2.8803278203441192e+00 0 0 0
3603 1 2.2785012799131358e+01 1.7179198312060720e-01 2.8647893963000453e+00 0 0 0
3601 1 2.2891690526219236e+01 1.3428341721127601e-01 2.7731690471990450e-02 0 0 0
4052 1 2.7050782333756704e+01 1.5133745271704220e+00 1.3289100241882887e+00 0 0 0
4083 1 2.5717103254396896e+01 2.9333257071407486e+00 2.9291570221406302e+00 0 0 0
4053 1 2.5618711603316228e+01 7.8849420509869650e-02 2.8361146939669779e+00 0 0 0
4533 1 2.8514091915622004e+01 3.0031771165234886e+00 2.6752336959489234e+00 0 0 0
4531 1 2.8360494661978443e+01 3.0192476348976984e+00 7.5142551928264661e-02 0 0 0
32 1 1.1922230541432310e+00 4.5580154578355652e+00 1.4445847591706751e+00 0 0 0
513 1 2.7869263641236359e+00 5.7254668707737855e+00 2.8903967737460201e+00 0 0 0
511 1 2.8701253462347065e+00 5.7378525513749263e+00 1.0154644489674644e-01 0 0 0
63 1 4.6070573162547784e-02 5.8847870068581205e+00 2.9412016920733155e+00 0 0 0
482 1 4.3876413690866283e+00 4.4278332436373677e+00 1.5699493112986855e+00 0 0 0
963 1 5.7224396399591742e+00 5.8857063679837207e+00 2.9314753969513534e+00 0 0 0
932 1 6.9917115047334395e+00 4.3776446338404398e+00 1.3919756197170259e+00 0 0 0
1413 1 8.5702916519959818e+00 5.6821990663850555e+00 2.9154881880447414e+00 0 0 0
1411 1 8.5130718405338133e+00 5.6858629910863874e+00 1.0651749941451820e-01 0 0 0
1382 1 9.8817983780089040e+00 4.1884246840717303e+00 1.3645719966174297e+00 0 0 0
1863 1 1.1469567975673570e+01 5.6157800944936609e+00 2.7694753579216349e+00 0 0 0
1861 1 1.1272992774918501e+01 5.6516857487740850e+00 1.3134295002126817e-01 0 0 0
1832 1 1.2998900594673856e+01 4.2059833406213265e+00 1.4221585333105229e+00 0 0 0
2313 1 1.4343066517698910e+01 5.5580807776150252e+00 2.9750719227636089e+00 0 0 0
2282 1 1.5663809712563138e+01 4.0800143394222737e+00 1.5534511557744994e+00 0 0 0
2311 1 1.4254047488983893e+01 5.5377458153893322e+00 1.0002605668495167e-01 0 0 0
2732 1 1.8432979774567052e+01 4.1703101469515751e+00 1.5662896666172899e+00 0 0 0
2763 1 1.7019652612497048e+01 5.6009346886851414e+00 2.8905269532426741e+00 0 0 0
2761 1 1.7014975378237317e+01 5.6473350507494526e+00 1.0407474871634149e-01 0 0 0
3213 1 1.9911667610769452e+01 5.6030387924647620e+00 2.8463300459049599e+00 0 0 0
3182 1 2.1433236538380026e+01 4.1831818028895889e+00 1.4929611296345859e+00 0 0 0
3211 1 1.9954288403529176e+01 5.4795779729671743e+00 7.0734738666638194e-02 0 0 0
3632 1 2.4233345167636553e+01 4.2872022178057074e+00 1.4127497896214707e+00 0 0 0
3663 1 2.2734268902304414e+01 5.6275599283981617e+00 2.7863034527933399e+00 0 0 0
4082 1 2.7020987590257292e+01 4.3694386393969671e+00 1.3718099627527525e+00 0 0 0
4113 1 2.5571727754832889e+01 5.7358513845861152e+00 2.8197663644210382e+00 0 0 0
4111 1 2.5655421730941608e+01 5.7235674187543424e+00 2.9907391125249906e-02 0 0 0
4561 1 2.8424074979254303e+01 5.7481654432450719e+00 5.1413739818275364e-02 0 0 0
62 1 1.3223682198779423e+00 7.1906824061023906e+00 1.5014392490873731e+00 0 0 0
543 1 2.9168115239148147e+00 8.6038619444540565e+00 2.7552253929316932e+00 0 0 0
541 1 2.7211295074944966e+00 8.5612780849565286e+00 9.8655541344062819e-02 0 0 0
93 1 1.2490771164413057e-01 8.6090209439521725e+00 2.8589872691455573e+00 0 0 0
512 1 4.2069195418241607e+00 7.0420255506777494e+00 1.4913152328670554e+00 0 0 0
993 1 5.5761863954541981e+00 8.6234859274013171e+00 2.8083293040666475e+00 0 0 0
991 1 5.7030654156928433e+00 8.4237341879500995e+00 1.0792238423159713e-01 0 0 0
962 1 7.1122332983175465e+00 7.0732696258427810e+00 1.5427574395596317e+00 0 0 0
1443 1 8.4870009558735777e+00 8.5156056473615553e+00 2.9357558032316162e+00 0 0 0
1412 1 9.9709028036432610e+00 6.9889421790552282e+00 1.5603030625382013e+00 0 0 0
1893 1 1.1407769696697715e+01 8.5452620653938265e+00 3.0124988405535915e+00 0 0 0
1891 1 1.1346298323053579e+01 8.5283535606763774e+00 8.3371188154557671e-02 0 0 0
1862 1 1.2886511531433783e+01 6.9862162578686453e+00 1.4472973539216005e+00 0 0 0
2343 1 1.4100988797552246e+01 8.4137237673638356e+00 2.9257514107577762e+00 0 0 0
2312 1 1.5701475738844614e+01 7.0036901009495063e+00 1.5963366547181947e+00 0 0 0
2342 1 1.5680168967476030e+01 9.7914757502010783e+00 1.4677982027476926e+00 0 0 0
2762 1 1.8364483818295550e+01 7.0808017167677182e+00 1.3816157323595986e+00 0 0 0
2793 1 1.7086112324284528e+01 8.3387615073316557e+00 2.9841124273628030e+00 0 0 0
2792 1 1.8358819597383281e+01 9.8010737548655289e+00 1.3765450991573618e+00 0 0 0
3212 1 2.1543030614611606e+01 7.0756674175893535e+00 1.2634919075637414e+00 0 0 0
3243 1 1.9954425142616103e+01 8.4494834197778168e+00 2.7266354545934184e+00 0 0 0
3241 1 1.9845040910169800e+01 8.4271327544333641e+00 4.4461925278488759e-02 0 0 0
3662 1 2.4242567409932803e+01 7.1463545488494962e+00 1.4218915609748188e+00 0 0 0
3693 1 2.2715633751516009e+01 8.4820399845987904e+00 2.9643416455864871e+00 0 0 0
4112 1 2.6998694932587998e+01 7.3274024074834250e+00 1.3065310927076916e+00 0 0 0
4143 1 2.5536745472553992e+01 8.5608652874254059e+00 2.9458546446134690e+00 0 0 0
4141 1 2.5589572279058345e+01 8.6411797354576478e+00 4.9493851089015606e-02 0 0 0
4591 1 2.8544008227257024e+01 8.6108790840333391e+00 3.1778728192193316e-02 0 0 0
4593 1 2.8549258162330993e+01 8.5442111595548624e+00 2.8130161290329312e+00 0 0 0
92 1 1.2554493788106311e+00 9.9290196351799622e+00 1.4780007872171712e+00 0 0 0
573 1 2.7752257694733733e+00 1.1429236476486558e+01 2.8203803186048750e+00 0 0 0
122 1 1.3235751553555846e+00 1.2752997639669330e+01 1.4822037045012537e+00 0 0 0
542 1 4.2028585972584427e+00 9.9950978809660782e+00 1.3765625958053351e+00 0 0 0
1023 1 5.6748827147861052e+00 1.1387864099532111e+01 2.7714043496534444e+00 0 0 0
572 1 4.0494586766195058e+00 1.2836948948950324e+01 1.3835091712805432e+00 0 0 0
992 1 7.0386737759606230e+00 9.8993604763006857e+00 1.4847955465052003e+00 0 0 0
1473 1 8.4198388455825999e+00 1.1276571843112777e+01 2.9121849463507603e+00 0 0 0
1022 1 7.1486194054953591e+00 1.2823164535479066e+01 1.4226131381782579e+00 0 0 0
1471 1 8.5114093490368479e+00 1.1314970957629992e+01 7.0188749499984354e-02 0 0 0
1442 1 9.9352557790431870e+00 9.9734692498283675e+00 1.6914536806520697e+00 0 0 0
1923 1 1.1431430408133519e+01 1.1257519685438428e+01 2.9261882112457820e+00 0 0 0
1472 1 9.9164518044050425e+00 1.2739418939241299e+01 1.4533913722732454e+00 0 0 0
1921 1 1.1459773758341260e+01 1.1180908240943891e+01 2.6378135123398488e-01 0 0 0
1892 1 1.2769138788268066e+01 9.9151382462634974e+00 1.5463832680542802e+00 0 0 0
1922 1 1.2898648357491769e+01 1.2646811199469996e+01 1.6172138034746015e+00 0 0 0
2373 1 1.4282486793561958e+01 1.1243024462441838e+01 2.9720612614684385e+00 0 0 0
2372 1 1.5796475946669721e+01 1.2688689484962808e+01 1.4778689244514778e+00 0 0 0
2371 1 1.4218951460533251e+01 1.1319909196872777e+01 2.0025464460197730e-02 0 0 0
2823 1 1.6906486579281893e+01 1.1173532025505935e+01 2.8250583197802346e+00 0 0 0
2822 1 1.8375337260851190e+01 1.2714672925736787e+01 1.5896918417076440e+00 0 0 0
3242 1 2.1235205920769832e+01 9.9453650914838114e+00 1.4195637534689103e+00 0 0 0
3273 1 1.9854121187463704e+01 1.1350462447282244e+01 2.8863097023073183e+00 0 0 0
3272 1 2.1470583954900029e+01 1.2818340454495884e+01 1.5081773726386638e+00 0 0 0
3271 1 1.9792346252709251e+01 1.1422495387077751e+01 1.7215681004557656e-01 0 0 0
3692 1 2.4165242876805092e+01 1.0002251107834095e+01 1.5327788302605028e+00 0 0 0
3723 1 2.2858563589192492e+01 1.1252562923268515e+01 2.9397101609350225e+00 0 0 0
3722 1 2.4116056887937511e+01 1.2793434268085443e+01 1.3657765195124736e+00 0 0 0
3721 1 2.2645008987065896e+01 1.1410151710340751e+01 4.4993511466066005e-02 0 0 0
4142 1 2.7127208843741510e+01 9.9707571006521150e+00 1.5350386141416217e+00 0 0 0
4172 1 2.7092688790325191e+01 1.2706333023832492e+01 1.5997148891519903e+00 0 0 0
4173 1 2.5468416933921795e+01 1.1338476192253305e+01 2.8383666896505124e+00 0 0 0
4171 1 2.5583983543182327e+01 1.1369176809638299e+01 4.1566952116056974e-02 0 0 0
4623 1 2.8546459672800875e+01 1.1471742528742041e+01 3.0335887272031807e+00 0 0 0
4621 1 2.8431135183228619e+01 1.1383839303305084e+01 1.0826178135414737e-01 0 0 0
603 1 2.8050828185243568e+00 1.4214919339185412e+01 2.8975446582718116e+00 0 0 0
152 1 1.3337406656159030e+00 1.5482412768737925e+01 1.3087292821496024e+00 0 0 0
1053 1 5.6686186141918924e+00 1.3998902381156501e+01 2.8298993760151823e+00 0 0 0
602 1 4.1126062078743333e+00 1.5592345990904931e+01 1.5016130526102329e+00 0 0 0
1051 1 5.5134888104827473e+00 1.4133617415507620e+01 1.2467181231095026e-02 0 0 0
1052 1 7.0245750851834181e+00 1.5456765857268964e+01 1.4527114792561455e+00 0 0 0
1503 1 8.5428690272382557e+00 1.4115424187491849e+01 2.8912009714499094e+00 0 0 0
1501 1 8.6489334229754480e+00 1.4150664738577373e+01 1.6887766962908193e-01 0 0 0
1953 1 1.1451175871616762e+01 1.4115296580464735e+01 3.0212168105684247e+00 0 0 0
1502 1 1.0141287904584738e+01 1.5546046663169919e+01 1.6555585248464397e+00 0 0 0
1951 1 1.1402284811359785e+01 1.4039641746582689e+01 8.3434595684654583e-02 0 0 0
1952 1 1.2964691450453877e+01 1.5638458247361397e+01 1.4814912052346383e+00 0 0 0
2403 1 1.4191827518979796e+01 1.4142458016924037e+01 2.9857358212096594e+00 0 0 0
2402 1 1.5505857404818965e+01 1.5627875728733789e+01 1.4909468084264634e+00 0 0 0
2401 1 1.4299132494024924e+01 1.4126539354173850e+01 9.6044286265023968e-02 0 0 0
2853 1 1.6977532825434789e+01 1.4161240397112863e+01 2.9864859700347846e+00 0 0 0
2852 1 1.8594600031791124e+01 1.5590215542385206e+01 1.5425467936570507e+00 0 0 0
2851 1 1.7132039032802439e+01 1.4266480901867290e+01 1.8866795150533994e-01 0 0 0
3303 1 1.9975240998874227e+01 1.4223757220379859e+01 2.8129155794983860e+00 0 0 0
3302 1 2.1425548824417657e+01 1.5571367794201750e+01 1.4083016411167457e+00 0 0 0
3753 1 2.2718517023086708e+01 1.4274589200792681e+01 2.9445739862225317e+00 0 0 0
3752 1 2.4250479221791760e+01 1.5682565525329439e+01 1.4240187557433182e+00 0 0 0
4203 1 2.5760905252951389e+01 1.4147859761308395e+01 2.7943810271855161e+00 0 0 0
4202 1 2.7150539522671128e+01 1.5727526627259769e+01 1.4740591068882554e+00 0 0 0
4201 1 2.5719732934193402e+01 1.4178825357392482e+01 6.9884536925706620e-02 0 0 0
4651 1 2.8498510148184220e+01 1.4221591840634323e+01 4.4019869176006848e-03 0 0 0
182 1 1.4221637627294610e+00 1.8451331212637296e+01 1.4185588609845814e+00 0 0 0
633 1 2.8358386700076652e+00 1.7106523874614794e+01 2.9083621137238085e+00 0 0 0
631 1 2.6487166863097751e+00 1.7050668323903498e+01 3.8684118404866297e-02 0 0 0
632 1 4.1029424487015280e+00 1.8442140275747505e+01 1.3711126169317651e+00 0 0 0
1083 1 5.6358039228833308e+00 1.6933250692456401e+01 2.8047631514003948e+00 0 0 0
1081 1 5.6691763869082408e+00 1.7073266824929387e+01 7.6688040016839543e-02 0 0 0
1082 1 7.1090024933772247e+00 1.8493963064057905e+01 1.5730310283596882e+00 0 0 0
1533 1 8.5445603202999418e+00 1.7024446304409739e+01 2.9110045597957104e+00 0 0 0
1531 1 8.4879912467681677e+00 1.6970690104332082e+01 8.5630470795861710e-02 0 0 0
1532 1 1.0062155289802407e+01 1.8408611477399571e+01 1.5280007111147065e+00 0 0 0
1983 1 1.1333427576395607e+01 1.7059739056810130e+01 3.0179534609935956e+00 0 0 0
1981 1 1.1291739295356759e+01 1.6948833560031716e+01 5.0242674771588725e-02 0 0 0
1982 1 1.2744349200158894e+01 1.8368853754461480e+01 1.5602046960542757e+00 0 0 0
2433 1 1.4251314913781219e+01 1.6937176476891963e+01 2.9195126861837295e+00 0 0 0
2432 1 1.5442900450136861e+01 1.8475586496590417e+01 1.5429260460384138e+00 0 0 0
2431 1 1.4119315827077184e+01 1.7051896202368791e+01 1.0327119851937649e-01 0 0 0
2882 1 1.8353616736330409e+01 1.8519960214182291e+01 1.4457901130274988e+00 0 0 0
2883 1 1.7053570089338120e+01 1.7010168462382854e+01 2.9960557056952228e+00 0 0 0
2881 1 1.7002015636379259e+01 1.6979162743931951e+01 1.6528544268038348e-01 0 0 0
3333 1 1.9853121758881951e+01 1.7070532586920876e+01 2.9231652371792762e+00 0 0 0
3332 1 2.1270333950671585e+01 1.8346582027393627e+01 1.4890273321097005e+00 0 0 0
3331 1 1.9926775323857722e+01 1.6942732298379010e+01 9.7348494728784998e-02 0 0 0
3782 1 2.4146162218859846e+01 1.8535058487760619e+01 1.4426051354749163e+00 0 0 0
3783 1 2.2681431964658266e+01 1.7001967846610668e+01 2.9368194779999577e+00 0 0 0
4232 1 2.7119723701103304e+01 1.8430252523031800e+01 1.4128221461181860e+00 0 0 0
4233 1 2.5668807586549725e+01 1.7157056769641802e+01 2.8087282027758178e+00 0 0 0
4231 1 2.5554729944387098e+01 1.7149377208745143e+01 2.5560525470954876e-01 0 0 0
212 1 1.2526851862069652e+00 2.1267424363428354e+01 1.4074324241626801e+00 0 0 0
663 1 2.7608215861083569e+00 1.9847238334175785e+01 2.9170604997525964e+00 0 0 0
693 1 2.7151531212263817e+00 2.2900341185916833e+01 2.9085150522075671e+00 0 0 0
661 1 2.7566879072474779e+00 1.9861016057909495e+01 5.9068499789567852e-02 0 0 0
691 1 2.7658186842432180e+00 2.2727249557953094e+01 3.4148701510851254e-02 0 0 0
243 1 6.0898677212321242e-02 2.2805745395696313e+01 2.9794096162405244e+00 0 0 0
1113 1 5.7000735609537081e+00 1.9968221943125091e+01 2.8810860285634980e+00 0 0 0
662 1 4.0291000044878382e+00 2.1316286709122092e+01 1.5980278721424628e+00 0 0 0
1143 1 5.5749918973047317e+00 2.2883918601854010e+01 2.9469701055462472e+00 0 0 0
1111 1 5.5984756957344652e+00 1.9840120696433200e+01 1.2659165875867126e-01 0 0 0
1141 1 5.5370461956885926e+00 2.2716369658696692e+01 1.5402895336235262e-01 0 0 0
1112 1 7.1013823998581191e+00 2.1385398711009671e+01 1.5113488994040576e+00 0 0 0
1563 1 8.3982458266376110e+00 1.9965596996757327e+01 2.9450563371638236e+00 0 0 0
1593 1 8.5533275129629995e+00 2.2818368491035141e+01 2.8569959809685130e+00 0 0 0
1561 1 8.5000461090865578e+00 1.9970081125844171e+01 1.4128393164917687e-02 0 0 0
2013 1 1.1349655054679667e+01 1.9927826253183138e+01 3.0272653849566113e+00 0 0 0
1562 1 9.8550751251828395e+00 2.1302299634622067e+01 1.6551795094729471e+00 0 0 0
2043 1 1.1297453285354123e+01 2.2821792083006450e+01 2.9928006382898986e+00 0 0 0
2041 1 1.1271199870991584e+01 2.2668181501076972e+01 1.0277340678769982e-01 0 0 0
2011 1 1.1128114420404748e+01 1.9849111329420158e+01 3.9180082060338170e-02 0 0 0
2012 1 1.2778885482059923e+01 2.1283487891558178e+01 1.5710975721994869e+00 0 0 0
2463 1 1.4226944165661163e+01 1.9820398464720039e+01 3.1767891093460885e+00 0 0 0
2493 1 1.4272781715430209e+01 2.2803335946092659e+01 2.9290950173694918e+00 0 0 0
2462 1 1.5528391895831241e+01 2.1278155316196997e+01 1.5015377066999924e+00 0 0 0
2461 1 1.4050129065016295e+01 1.9894818598042395e+01 8.4113466821228708e-02 0 0 0
2491 1 1.4133717576539132e+01 2.2860741778353475e+01 2.6211869788375880e-01 0 0 0
2913 1 1.6775899185163151e+01 1.9929934137704468e+01 2.9206133774406617e+00 0 0 0
2912 1 1.8458294352559584e+01 2.1252857057718046e+01 1.5561794550054275e+00 0 0 0
2943 1 1.7047933407190619e+01 2.2779934811285067e+01 2.9009812790727718e+00 0 0 0
2941 1 1.7034711883348187e+01 2.2715226381564491e+01 2.9800353948367786e-01 0 0 0
3363 1 1.9838453340446577e+01 1.9892681317360399e+01 3.0385951481653621e+00 0 0 0
3393 1 1.9883766071531433e+01 2.2822535660360789e+01 2.9229154078474924e+00 0 0 0
3362 1 2.1358865353032666e+01 2.1395470436459988e+01 1.5053680975484156e+00 0 0 0
3361 1 1.9920084005675559e+01 1.9904508088377550e+01 5.8618697661471215e-02 0 0 0
3391 1 1.9881208728163404e+01 2.2759145583802564e+01 9.9950769143887161e-02 0 0 0
3813 1 2.2699546808157663e+01 1.9851917667475036e+01 2.7791736369756710e+00 0 0 0
3812 1 2.4073031333708936e+01 2.1334625254395334e+01 1.4892672445845283e+00 0 0 0
3843 1 2.2774482307567599e+01 2.2838764582917946e+01 2.9896588896598062e+00 0 0 0
3811 1 2.2743409217408558e+01 1.9800919533481199e+01 7.8194165604280094e-02 0 0 0
3841 1 2.2815598135197384e+01 2.2812797313472512e+01 3.3579369430985391e-02 0 0 0
4713 1 2.8474658257885483e+01 1.9922370030424251e+01 2.8511018973488973e+00 0 0 0
4263 1 2.5586979610964903e+01 1.9937223241274580e+01 2.7362531107676134e+00 0 0 0
4262 1 2.7115544558172633e+01 2.1367209163717881e+01 1.3654612221110782e+00 0 0 0
4293 1 2.5566163554775908e+01 2.2762308424243884e+01 2.8988701062118576e+00 0 0 0
4291 1 2.5683017141801358e+01 2.2710524563055269e+01 4.7236111575738385e-02 0 0 0
4743 1 2.8420534463167940e+01 2.2697609897530718e+01 2.7726328679210956e+00 0 0 0
242 1 1.4451140572714258e+00 2.4244908921159279e+01 1.5210817603817275e+00 0 0 0
723 1 2.8856045492213620e+00 2.5635555147076580e+01 2.7730087706754869e+00 0 0 0
721 1 2.8917512482572718e+00 2.5612823112814660e+01 7.4357377468661237e-02 0 0 0
692 1 4.1165252229297371e+00 2.4183267533205957e+01 1.4097433336672522e+00 0 0 0
1173 1 5.8652441711371530e+00 2.5710886869412043e+01 2.9177178950202816e+00 0 0 0
1171 1 5.5804154970283983e+00 2.5580337667010731e+01 6.7593839816872753e-02 0 0 0
1142 1 7.1101923689130153e+00 2.4321865298343091e+01 1.3986711805103456e+00 0 0 0
1623 1 8.6250206091059312e+00 2.5750055468012157e+01 3.0097290680484758e+00 0 0 0
1621 1 8.5830922582385618e+00 2.5585253714413785e+01 9.0427809586224442e-02 0 0 0
1592 1 9.8636255546683351e+00 2.4181778502917634e+01 1.4560058923011763e+00 0 0 0
2073 1 1.1331719285942725e+01 2.5785299471766237e+01 2.8726563401317731e+00 0 0 0
2042 1 1.2676218504498603e+01 2.4319327480922297e+01 1.5569479891717988e+00 0 0 0
2071 1 1.1206673229132265e+01 2.5630843855178771e+01 9.8285982285114273e-02 0 0 0
2523 1 1.4100933006677119e+01 2.5797279232944405e+01 2.8292928842789244e+00 0 0 0
2492 1 1.5572172871371517e+01 2.4194898612969684e+01 1.5532785775512885e+00 0 0 0
2521 1 1.4031984664216385e+01 2.5582393225291913e+01 1.9484270641208273e-01 0 0 0
2942 1 1.8472680057191486e+01 2.4175882001449647e+01 1.5477017066385805e+00 0 0 0
2973 1 1.6956409836397050e+01 2.5708210072117229e+01 2.8369612040807501e+00 0 0 0
2971 1 1.6982864948652729e+01 2.5639565389133431e+01 7.4288036528663795e-02 0 0 0
3423 1 1.9878731748183075e+01 2.5676589252233931e+01 2.8626518841441100e+00 0 0 0
3392 1 2.1385070504096056e+01 2.4116587886395735e+01 1.5830726625009064e+00 0 0 0
3421 1 2.0003631862841129e+01 2.5650302632230520e+01 1.0698931168044479e-01 0 0 0
3842 1 2.4220191026431440e+01 2.4271357475281174e+01 1.4512947501846341e+00 0 0 0
3873 1 2.2724490992958685e+01 2.5767483591058838e+01 2.8904925297854271e+00 0 0 0
3871 1 2.2862190876704588e+01 2.5611770863573579e+01 8.6260133270385342e-02 0 0 0
4292 1 2.6989636941717535e+01 2.4228867592436185e+01 1.5074061899146352e+00 0 0 0
4323 1 2.5699668211530458e+01 2.5792991054288983e+01 2.9136261246702650e+00 0 0 0
4321 1 2.5737585719243388e+01 2.5812689843762737e+01 9.7533853782408475e-02 0 0 0
4773 1 2.8419213328281561e+01 2.5640610365267580e+01 2.8915979067896962e+00 0 0 0
272 1 1.4591551082494452e+00 2.7172650415051404e+01 1.5255453077384129e+00 0 0 0
753 1 2.9452588654790501e+00 2.8505333577625805e+01 2.7885384271103377e+00 0 0 0
751 1 2.8762146677119254e+00 2.8491602717569151e+01 6.4618680043366475e-02 0 0 0
722 1 4.3449330973839038e+00 2.7128426672754056e+01 1.4803995807202437e+00 0 0 0
1203 1 5.8046329595776083e+00 2.8471360353388825e+01 2.8357436323206811e+00 0 0 0
1172 1 7.1326615566111506e+00 2.7048099815972250e+01 1.4901050981003952e+00 0 0 0
1653 1 8.5105392353626250e+00 2.8655090543994582e+01 2.9053302360107511e+00 0 0 0
1622 1 9.7150142770106456e+00 2.7209541114906781e+01 1.5134905763581403e+00 0 0 0
2103 1 1.1317462001429117e+01 2.8691188473040913e+01 2.9169926577565000e+00 0 0 0
2072 1 1.2542982477740825e+01 2.7180213501778415e+01 1.4141871525304970e+00 0 0 0
2553 1 1.4025574957159570e+01 2.8496904167769639e+01 2.8132090718298457e+00 0 0 0
2551 1 1.4123116014476263e+01 2.8659448360852444e+01 5.7577731302808577e-02 0 0 0
2522 1 1.5493804360150522e+01 2.7172226098461948e+01 1.4841271991590879e+00 0 0 0
2972 1 1.8466461524103028e+01 2.7102968641695547e+01 1.4564597771558829e+00 0 0 0
3003 1 1.7002017708171159e+01 2.8613688279477465e+01 2.8496122638756831e+00 0 0 0
3001 1 1.6862823607593619e+01 2.8478962921530528e+01 6.1651260008403513e-02 0 0 0
3422 1 2.1343869932411888e+01 2.7106501377579285e+01 1.4716147356781353e+00 0 0 0
3453 1 1.9806331167636710e+01 2.8539508831846032e+01 2.7772558570586758e+00 0 0 0
3872 1 2.4195667183357685e+01 2.7234139847756850e+01 1.5069808940038139e+00 0 0 0
3903 1 2.2789886015358018e+01 2.8651669106412420e+01 2.9253045031873595e+00 0 0 0
4322 1 2.7046178210858656e+01 2.7173140050531963e+01 1.4856632375532339e+00 0 0 0
4353 1 2.5744043540630880e+01 2.8744590472240340e+01 2.9174466324647570e+00 0 0 0
4803 1 2.8417593717063038e+01 2.8685267140617881e+01 2.7830965591392163e+00 0 0 0
302 1 1.2963735301305463e+00 2.9978988692922727e+01 1.5216714697031619e+00 0 0 0
783 1 2.8872670041984287e+00 3.1371372376070415e+01 2.7897990228203389e+00 0 0 0
332 1 1.4021613238771122e+00 3.2742207950506355e+01 1.4385215940632021e+00 0 0 0
333 1 1.0354559038355125e-01 3.1490012572771779e+01 2.9540232088860154e+00 0 0 0
752 1 4.3006844326242257e+00 2.9916204714465206e+01 1.4131249973138618e+00 0 0 0
1233 1 5.6176922607757520e+00 3.1507290395078805e+01 2.8421076524606605e+00 0 0 0
782 1 4.2076645643460573e+00 3.2803276142668523e+01 1.3506354975045129e+00 0 0 0
1202 1 7.1245563364073847e+00 3.0106635338788728e+01 1.4137925091191106e+00 0 0 0
1683 1 8.3673462802395111e+00 3.1511978585753393e+01 2.9052948811312351e+00 0 0 0
1232 1 6.9271041020265027e+00 3.2919432588007183e+01 1.4155274687229267e+00 0 0 0
1652 1 9.9528619255069088e+00 3.0164022036262477e+01 1.3694473044997351e+00 0 0 0
2133 1 1.1330743779315346e+01 3.1514081261303069e+01 2.7725809765178844e+00 0 0 0
2131 1 1.1267994079787943e+01 3.1657868859147520e+01 9.0740211890150135e-03 0 0 0
2102 1 1.2654197722774020e+01 3.0100201722339989e+01 1.3459188405511628e+00 0 0 0
2583 1 1.4129316173504693e+01 3.1625325620960577e+01 2.7873620653163691e+00 0 0 0
2581 1 1.4052947860038861e+01 3.1493881242565550e+01 9.1214837330753085e-03 0 0 0
2552 1 1.5541357189705066e+01 3.0023179451367838e+01 1.5184889732472886e+00 0 0 0
3002 1 1.8399450107798646e+01 3.0080299388228212e+01 1.3812345512845083e+00 0 0 0
3033 1 1.6857351192897891e+01 3.1495360529616189e+01 2.8761835649391356e+00 0 0 0
3032 1 1.8562272352382418e+01 3.2855964976557402e+01 1.4027441973867329e+00 0 0 0
3031 1 1.6969627255027028e+01 3.1460549705323782e+01 1.8960290627003498e-01 0 0 0
3452 1 2.1298788679306384e+01 2.9889723696218901e+01 1.4011263817084978e+00 0 0 0
3483 1 1.9862090246782401e+01 3.1516563924314365e+01 2.9392085975878866e+00 0 0 0
3482 1 2.1412068638926968e+01 3.2840178651633025e+01 1.3868597969921850e+00 0 0 0
3481 1 1.9914189276630609e+01 3.1275096374967355e+01 5.9550871650840047e-02 0 0 0
3902 1 2.4248302389266630e+01 3.0047836766946045e+01 1.4504492465454213e+00 0 0 0
3933 1 2.2680843003981764e+01 3.1438983785799898e+01 2.8060637679581766e+00 0 0 0
3932 1 2.4112080942163907e+01 3.2771712188462359e+01 1.3732810570344987e+00 0 0 0
4352 1 2.7097149844770893e+01 3.0050811170214171e+01 1.3560310859833680e+00 0 0 0
4383 1 2.5779460630168998e+01 3.1392855717702606e+01 2.8201242256115222e+00 0 0 0
4382 1 2.7185938359536120e+01 3.2892504587096553e+01 1.5629256449944617e+00 0 0 0
4381 1 2.5772484950389821e+01 3.1466770810939909e+01 2.3252554164706396e-02 0 0 0
4833 1 2.8549318447377253e+01 3.1478566675356973e+01 2.8695322490797328e+00 0 0 0
813 1 2.8555106888494057e+00 3.4164366145926763e+01 2.7775132876838629e+00 0 0 0
362 1 1.4181018283754263e+00 3.5689802856323155e+01 1.5201249387244877e+00 0 0 0
811 1 2.8568008097283801e+00 3.4179933056495230e+01 -5.4042323770129436e-05 0 0 0
363 1 6.5467350659879742e-02 3.4286579626081675e+01 2.8889587249424786e+00 0 0 0
1263 1 5.5964442785757464e+00 3.4314322563257491e+01 2.9242598110925631e+00 0 0 0
812 1 4.1817528161381841e+00 3.5733870552456068e+01 1.4952036181554687e+00 0 0 0
1261 1 5.5137336426481900e+00 3.4353733051151067e+01 1.9834230733558889e-01 0 0 0
1713 1 8.4678628193780039e+00 3.4345582170303828e+01 2.9976759467605918e+00 0 0 0
1262 1 7.0167748620126007e+00 3.5737305639325328e+01 1.5387728199565720e+00 0 0 0
1711 1 8.3765851497614126e+00 3.4377716678360571e+01 6.5410247515088962e-02 0 0 0
1682 1 9.7377434202834454e+00 3.2954918461501009e+01 1.4852908862514462e+00 0 0 0
2163 1 1.1211071721704782e+01 3.4235737793857382e+01 2.9090400422873546e+00 0 0 0
1712 1 9.9303248747972326e+00 3.5774358505184651e+01 1.4780442329438261e+00 0 0 0
2162 1 1.2654903458281241e+01 3.5697500981784103e+01 1.4110965815512080e+00 0 0 0
2132 1 1.2627613082897728e+01 3.3002396331917268e+01 1.3456228840245110e+00 0 0 0
2582 1 1.5595018058376608e+01 3.2985273543216906e+01 1.4105308341084777e+00 0 0 0
2613 1 1.4096618806322345e+01 3.4265483170148102e+01 2.8884613029383313e+00 0 0 0
2612 1 1.5554200035388623e+01 3.5719444001617489e+01 1.5266124179214726e+00 0 0 0
3063 1 1.7017554887269927e+01 3.4363463752549393e+01 2.8388314011265683e+00 0 0 0
3062 1 1.8443017987379296e+01 3.5714642288827775e+01 1.3775280157085674e+00 0 0 0
3061 1 1.7046771723365698e+01 3.4287477033982896e+01 5.6126351351232916e-02 0 0 0
3513 1 1.9929929927270258e+01 3.4270888651573159e+01 2.8381514577560081e+00 0 0 0
3512 1 2.1333042451017402e+01 3.5674087137390316e+01 1.4281888370821829e+00 0 0 0
3511 1 1.9863470982879800e+01 3.4281005946579882e+01 6.6164124695572327e-02 0 0 0
3963 1 2.2731605316180310e+01 3.4203162489351186e+01 3.0027190342180843e+00 0 0 0
3962 1 2.4200685029764156e+01 3.5708627105507304e+01 1.4253346467851005e+00 0 0 0
3961 1 2.2782784595143529e+01 3.4189459673391838e+01 5.0998819331996528e-02 0 0 0
4413 1 2.5685920611212676e+01 3.4312052696322141e+01 2.8684983879498884e+00 0 0 0
4412 1 2.7148565022840224e+01 3.5739982145934079e+01 1.5117369263027325e+00 0 0 0
4861 1 2.8418555034255327e+01 3.4390611459346403e+01 3.5287534567745575e-02 0 0 0
4863 1 2.8523221619115777e+01 3.4389590733509024e+01 2.8789199515359281e+00 0 0 0
392 1 1.3469263593155594e+00 3.8716201302567043e+01 1.4199194758134375e+00 0 0 0
843 1 2.7739712632826552e+00 3.7152305584775505e+01 2.8240762671179360e+00 0 0 0
393 1 6.2394429849817266e-02 3.7207291754597790e+01 2.8761445757396902e+00 0 0 0
391 1 5.7898283527343608e-02 3.7232194404957454e+01 1.4518454452228324e-01 0 0 0
842 1 4.1981739726762894e+00 3.8662136457258498e+01 1.3714968236628813e+00 0 0 0
1293 1 5.4842994680654886e+00 3.7123007936336776e+01 2.8838666348564246e+00 0 0 0
1291 1 5.7067811210463475e+00 3.7133540658417644e+01 8.4234977643311865e-02 0 0 0
1292 1 6.9107221859552164e+00 3.8553139451592472e+01 1.4624706145472306e+00 0 0 0
1743 1 8.4473912820272279e+00 3.7287544878790058e+01 2.8153606459737088e+00 0 0 0
1742 1 9.8409063961279433e+00 3.8676923170267855e+01 1.4678078130239212e+00 0 0 0
2193 1 1.1295053430503756e+01 3.7094788780112296e+01 2.9287785151754324e+00 0 0 0
2192 1 1.2671823952836039e+01 3.8479020085285512e+01 1.5003129240075854e+00 0 0 0
2643 1 1.4120578080914525e+01 3.7092839253621591e+01 2.8932622902644898e+00 0 0 0
2642 1 1.5510234710828041e+01 3.8580200780000993e+01 1.5282240923821453e+00 0 0 0
3092 1 1.8366940235431837e+01 3.8504163951290622e+01 1.3537275596738541e+00 0 0 0
3093 1 1.7025994890344560e+01 3.7171044543291814e+01 2.9178167002120525e+00 0 0 0
3091 1 1.7008826686992336e+01 3.7122658453073953e+01 2.5515862482701324e-02 0 0 0
3543 1 1.9895994624793413e+01 3.7019745973673295e+01 2.8169043613259541e+00 0 0 0
3542 1 2.1310361945216187e+01 3.8543539601580534e+01 1.4860755225888862e+00 0 0 0