LAMMPS data file via write_data, version 7 Aug 2019, timestep = 28000

9000 atoms
1 atom types

-1.2454929418246455e-04 5.7106124549294186e+01 xlo xhi
-9.3411970636848420e-05 4.2829593411970642e+01 ylo yhi
-9.3411970636848420e-05 4.2829593411970642e+01 zlo zhi

Masses

1 56

Atoms # atomic

2 1 1.2194368670432636e+00 1.6375514127012443e+00 1.5241219777676966e+00 0 0 0
483 1 2.7109320350531316e+00 3.0465248069855315e+00 2.8245054975611903e+00 0 0 0
481 1 2.4626516259717315e+00 3.1730183627538651e+00 9.2024457349477909e-02 0 0 0
453 1 2.6008615142790164e+00 2.7542413253412668e-01 2.9229992070363289e+00 0 0 0
451 1 2.5137568598019677e+00 2.9868303168594440e-01 8.6917597571023922e-02 0 0 0
452 1 3.8977716021894695e+00 1.6224711953347237e+00 1.4215015109428204e+00 0 0 0
933 1 5.3455243584511258e+00 2.8362770890215452e+00 2.9706865258020456e+00 0 0 0
931 1 5.3822806555017859e+00 3.0008555321952604e+00 8.7420844778194146e-02 0 0 0
903 1 5.3608993705843329e+00 1.4998690319417599e-01 2.9118454789376331e+00 0 0 0
902 1 6.7583013521852493e+00 1.4567401761206935e+00 1.6606427805152455e+00 0 0 0
1383 1 8.4165444212440832e+00 3.0032740129908322e+00 2.8317823486928577e+00 0 0 0
1353 1 8.4539004455166396e+00 1.3379964412637321e-01 2.9736452999551863e+00 0 0 0
1351 1 8.2377025669506274e+00 1.0426861020524646e-01 1.1693956595253886e-01 0 0 0
1381 1 8.3774137765718901e+00 2.8433203101542945e+00 5.8497819314011844e-02 0 0 0
1352 1 9.8314406587067662e+00 1.4543913383680753e+00 1.5092698602464714e+00 0 0 0
1833 1 1.1383030502650794e+01 2.7865115872780488e+00 2.7535410877057735e+00 0 0 0
1803 1 1.1305784214983804e+01 9.5597511362058546e-02 3.0645065164846392e+00 0 0 0
1831 1 1.1381291035403322e+01 2.9260537383332856e+00 8.4081196182532458e-02 0 0 0
1801 1 1.1245043006390885e+01 4.7426374180576422e-02 9.4675823176763665e-02 0 0 0
1802 1 1.2770238968141518e+01 1.5449601512032523e+00 1.4359247405778177e+00 0 0 0
2283 1 1.4237375430661947e+01 2.8333434030522602e+00 2.9893289680700112e+00 0 0 0
2253 1 1.4136651211240620e+01 1.0564103488086468e-01 2.8435699695773091e+00 0 0 0
2252 1 1.5668603554712556e+01 1.5916769279706999e+00 1.5135878116750687e+00 0 0 0
2702 1 1.8347015512941336e+01 1.3679563100902730e+00 1.4749001422652541e+00 0 0 0
2733 1 1.7038484293946855e+01 2.7458033856477959e+00 2.8638804238151696e+00 0 0 0
2703 1 1.7029255747190650e+01 8.8180981988944973e-02 2.9698398774149752e+00 0 0 0
2701 1 1.6914081216551835e+01 8.4171176270628700e-02 -7.3266510533187557e-05 0 0 0
3183 1 1.9824828305330861e+01 2.8500461421662608e+00 2.8718994893963519e+00 0 0 0
3152 1 2.1405810510856540e+01 1.5575491774603003e+00 1.6073545727055509e+00 0 0 0
3153 1 1.9961953488419216e+01 4.1685697625602813e-02 2.7891650019617176e+00 0 0 0
3151 1 1.9701811682067365e+01 7.1400163259158711e-02 1.2015254184147039e-01 0 0 0
3181 1 1.9810691188220122e+01 2.8670697204083515e+00 3.1237714821753103e-02 0 0 0
3602 1 2.4210336049765189e+01 1.4565046935710528e+00 1.5625551999756075e+00 0 0 0
3633 1 2.2716348181912931e+01 2.9099113839645048e+00 3.0143940109439775e+00 0 0 0
3603 1 2.2770108514700357e+01 1.4183440835886074e-02 2.8953575475948967e+00 0 0 0
3631 1 2.2723603713729464e+01 2.8896296856530879e+00 1.5844014783483118e-01 0 0 0
3601 1 2.2699700774769923e+01 4.4352198732487344e-02 1.8547376944053218e-01 0 0 0
4052 1 2.7075042695665474e+01 1.5489957850716682e+00 1.4771953276888199e+00 0 0 0
4083 1 2.5665012076500766e+01 2.9018467229546991e+00 2.9166192952576195e+00 0 0 0
4053 1 2.5698278973749147e+01 3.7836865568642963e-02 2.7583456660841392e+00 0 0 0
4081 1 2.5530596490056190e+01 2.8782919851689805e+00 1.1297858208880920e-01 0 0 0
4051 1 2.5725112428119154e+01 3.7252941474700874e-02 1.2721696021360129e-01 0 0 0
32 1 1.0444201292819442e+00 4.4558943151110499e+00 1.5830597291594699e+00 0 0 0
513 1 2.5414723405719379e+00 5.7278672197559528e+00 2.9587076728185320e+00 0 0 0
511 1 2.5735487012412386e+00 5.7762957552567142e+00 2.5289313240338371e-02 0 0 0
482 1 4.0789855706394569e+00 4.5193925876562675e+00 1.5259204013879120e+00 0 0 0
963 1 5.4693374130642773e+00 5.8565580157465575e+00 2.9248218533076509e+00 0 0 0
961 1 5.4561123867467245e+00 5.7987759777721104e+00 1.2118339018578439e-01 0 0 0
932 1 6.8896502207143708e+00 4.3445260619835473e+00 1.5587406169586335e+00 0 0 0
1413 1 8.4132265314967896e+00 5.7171432018084047e+00 2.8953021512330106e+00 0 0 0
1411 1 8.2602449978377663e+00 5.7115528698836009e+00 1.2371794239891898e-01 0 0 0
1382 1 9.7241585135824113e+00 4.2372403223179163e+00 1.3741884296558509e+00 0 0 0
1863 1 1.1244766336936809e+01 5.6033294674463523e+00 2.8204941429509396e+00 0 0 0
1861 1 1.1245722297962324e+01 5.6560386776805602e+00 1.1081242998819749e-02 0 0 0
1832 1 1.2759081201643784e+01 4.2930134376339160e+00 1.4606022903601208e+00 0 0 0
2313 1 1.4109527662607524e+01 5.5256267214920616e+00 2.8962773246757481e+00 0 0 0
2282 1 1.5471681145389075e+01 4.1892596600239367e+00 1.4107211037060035e+00 0 0 0
2732 1 1.8435627010123568e+01 4.3638290954580992e+00 1.3052168917951210e+00 0 0 0
2763 1 1.6995495463461555e+01 5.6557101027997865e+00 2.8282090466863141e+00 0 0 0
2761 1 1.7016326370421581e+01 5.7526882148022880e+00 6.0330343752147797e-02 0 0 0
3213 1 1.9846954308553066e+01 5.5169984259974054e+00 2.7950701960035333e+00 0 0 0
3182 1 2.1324602399527706e+01 4.3543931434068988e+00 1.4643948224421928e+00 0 0 0
3211 1 1.9910174189853400e+01 5.8627369757461096e+00 1.9353847263928633e-02 0 0 0
3632 1 2.4269408407945715e+01 4.3953944170945176e+00 1.5805002251248426e+00 0 0 0
3663 1 2.2785325817021914e+01 5.8207794368547994e+00 3.0120632871357405e+00 0 0 0
3661 1 2.2778311199564847e+01 5.9086928738967295e+00 2.0981399826427999e-01 0 0 0
4082 1 2.7227979634149751e+01 4.3475089390735855e+00 1.4705498428257451e+00 0 0 0
4113 1 2.5689020544191219e+01 5.7824754384815291e+00 2.9164269577087705e+00 0 0 0
4111 1 2.5658340933640684e+01 5.7349750073213119e+00 5.2816103887875762e-02 0 0 0
62 1 1.1544306663388739e+00 7.2048995096626109e+00 1.4005006792800598e+00 0 0 0
543 1 2.6761307396036456e+00 8.6241087296656360e+00 2.8082501370748738e+00 0 0 0
541 1 2.5465889676522835e+00 8.6731858320470110e+00 1.1718814069829099e-01 0 0 0
512 1 3.9770819494628591e+00 7.1138769397445971e+00 1.4782153918754799e+00 0 0 0
993 1 5.5872923588271233e+00 8.5857239470180762e+00 2.8274255663614447e+00 0 0 0
991 1 5.5817164570333082e+00 8.5873097676856975e+00 1.2737907191379079e-02 0 0 0
962 1 6.9648882829150187e+00 7.1363377937624870e+00 1.4395649040026921e+00 0 0 0
1443 1 8.5379644923617306e+00 8.6346806770753233e+00 2.9116824079708983e+00 0 0 0
1412 1 9.7701044583208265e+00 7.0561692725272369e+00 1.4802917267513911e+00 0 0 0
1893 1 1.1126105312466123e+01 8.4749623329918773e+00 2.9063200918761467e+00 0 0 0
1862 1 1.2683465627637901e+01 7.0783983922531082e+00 1.5416461374412842e+00 0 0 0
1892 1 1.2620387652618533e+01 9.7983166702855566e+00 1.4384624948051707e+00 0 0 0
2312 1 1.5397729602648043e+01 6.9468347933656158e+00 1.5186431517698413e+00 0 0 0
2343 1 1.3975840962840763e+01 8.3982395245948229e+00 2.8468847772469341e+00 0 0 0
2341 1 1.4062420296942877e+01 8.4108169057200683e+00 5.6786941631700380e-02 0 0 0
2762 1 1.8475517263651881e+01 7.1306836669288991e+00 1.5921526828331174e+00 0 0 0
2793 1 1.6923077217919840e+01 8.4079937842028656e+00 2.9139711676345446e+00 0 0 0
2791 1 1.6918322554320682e+01 8.4585541080669540e+00 1.0435082065212191e-01 0 0 0
2792 1 1.8372871941257873e+01 9.8533764606408667e+00 1.4442232564843838e+00 0 0 0
3212 1 2.1279526353060415e+01 7.1983422508862303e+00 1.6278850789636843e+00 0 0 0
3243 1 1.9892291986247916e+01 8.6039255257764484e+00 2.8931793439066680e+00 0 0 0
3241 1 1.9954350205349062e+01 8.6315607757607200e+00 8.8481970483287042e-02 0 0 0
3662 1 2.4298220410991522e+01 7.2277706389047216e+00 1.5501081454652346e+00 0 0 0
3693 1 2.2919165346633527e+01 8.6498427201625248e+00 3.1009010831908643e+00 0 0 0
3691 1 2.2828044925733501e+01 8.6293824419981959e+00 1.5716489071461262e-01 0 0 0
4112 1 2.7101441741111678e+01 7.1946643043312237e+00 1.6604643857550940e+00 0 0 0
4143 1 2.5746418384007402e+01 8.6725670303261193e+00 3.0097492177483192e+00 0 0 0
4141 1 2.5857706391058226e+01 8.5246215934174199e+00 4.7757645007988764e-02 0 0 0
4591 1 2.8503312692536394e+01 8.6633563823683435e+00 1.5110183460444437e-02 0 0 0
92 1 1.3917517113553060e+00 1.0105999011799717e+01 1.5010264545595335e+00 0 0 0
573 1 2.8074558263733369e+00 1.1438891067725649e+01 2.8832938646024333e+00 0 0 0
122 1 1.3219637143779299e+00 1.2874983386297435e+01 1.5906598440440254e+00 0 0 0
542 1 4.1335196615804115e+00 1.0127460206539006e+01 1.3084351559899394e+00 0 0 0
1023 1 5.5126667023897564e+00 1.1510364015045939e+01 2.7845743284776066e+00 0 0 0
572 1 4.0777370232013430e+00 1.2787637203776146e+01 1.4521421486488686e+00 0 0 0
992 1 7.0815077837749758e+00 1.0008847337972741e+01 1.4128560156996728e+00 0 0 0
1473 1 8.3160979047887285e+00 1.1401054640940234e+01 2.7648311777106422e+00 0 0 0
1022 1 6.9353187259592550e+00 1.2889880106798174e+01 1.4861811378805403e+00 0 0 0
1471 1 8.4792729896545449e+00 1.1523260523922579e+01 4.8254289451882926e-02 0 0 0
1442 1 9.8184778890301398e+00 1.0004083048947853e+01 1.2878433317308942e+00 0 0 0
1923 1 1.1159189190071963e+01 1.1377957002162274e+01 2.8726935156751332e+00 0 0 0
1472 1 9.7600118184192848e+00 1.2778668583153037e+01 1.4098612676259585e+00 0 0 0
1921 1 1.1271610421438755e+01 1.1416624813998984e+01 1.4860745472129282e-03 0 0 0
1922 1 1.2733804585826874e+01 1.2864984296838577e+01 1.4925962115923068e+00 0 0 0
2373 1 1.4020813892242161e+01 1.1392317156451490e+01 2.9232163369062176e+00 0 0 0
2371 1 1.4223200032247592e+01 1.1218780885385115e+01 1.2122835561664641e-01 0 0 0
2342 1 1.5580246313525748e+01 9.9282839174740722e+00 1.5923288721035607e+00 0 0 0
2372 1 1.5524640625653278e+01 1.2836300419773087e+01 1.5385564381028483e+00 0 0 0
2823 1 1.6892154306230019e+01 1.1256298529286374e+01 3.0275552680571414e+00 0 0 0
2822 1 1.8298990470305892e+01 1.2831300092520065e+01 1.5361913467574482e+00 0 0 0
2821 1 1.6891939080262055e+01 1.1317425695761077e+01 1.7447004613668327e-01 0 0 0
3242 1 2.1415333422617010e+01 9.9523285557687604e+00 1.4579176115061909e+00 0 0 0
3273 1 1.9802598869571369e+01 1.1445470909377326e+01 2.9489709492697314e+00 0 0 0
3272 1 2.1460862458452663e+01 1.2906071777244948e+01 1.4553734478800686e+00 0 0 0
3271 1 1.9883467837644385e+01 1.1376125249888585e+01 1.3449450146220071e-01 0 0 0
3721 1 2.2747672006173492e+01 1.1428827467754694e+01 4.0136440595797122e-02 0 0 0
3692 1 2.4289333035769978e+01 9.9656259987079210e+00 1.5399823447187144e+00 0 0 0
3723 1 2.2827461857922817e+01 1.1421744097583529e+01 2.8335987683805319e+00 0 0 0
3722 1 2.4473671521328441e+01 1.2759449265885856e+01 1.4957283890430753e+00 0 0 0
4142 1 2.7246475856685990e+01 1.0010843257497577e+01 1.4911183203515699e+00 0 0 0
4173 1 2.5937475255363765e+01 1.1497284601983672e+01 2.8399602545699478e+00 0 0 0
4172 1 2.7460507895193846e+01 1.2903988425650880e+01 1.4465764168801540e+00 0 0 0
4171 1 2.5793949739538931e+01 1.1508045153732910e+01 8.4358861495160239e-02 0 0 0
152 1 1.3932931806335045e+00 1.5752007295412087e+01 1.5564275936042706e+00 0 0 0
603 1 2.7246795945398201e+00 1.4361548065551052e+01 2.9392563351754570e+00 0 0 0
601 1 2.7813055759727181e+00 1.4201438639087350e+01 1.7948622655112914e-01 0 0 0
153 1 1.1013412286776258e-01 1.4419793554766386e+01 3.0123453919635792e+00 0 0 0
1053 1 5.5977189242107119e+00 1.4180595146575506e+01 3.0583135909485142e+00 0 0 0
602 1 4.3363581593007954e+00 1.5503938218990211e+01 1.5825266242644853e+00 0 0 0
1503 1 8.2185340363228541e+00 1.4064927913055685e+01 2.9083070793308821e+00 0 0 0
1052 1 6.9258193517204170e+00 1.5482711861873732e+01 1.4254585759901788e+00 0 0 0
1501 1 8.4124292650211725e+00 1.4377763000167766e+01 7.9691971863248057e-02 0 0 0
1953 1 1.1293496833040816e+01 1.4175137894343354e+01 2.7699209761427168e+00 0 0 0
1502 1 9.7631273052381911e+00 1.5679198886283695e+01 1.5479785642287813e+00 0 0 0
1951 1 1.1137248414330553e+01 1.4205164669718927e+01 1.9588255070884567e-03 0 0 0
1952 1 1.2695096312299903e+01 1.5729235206708356e+01 1.4125839468123746e+00 0 0 0
2403 1 1.4055540601156691e+01 1.4349348556431123e+01 2.9581025460169736e+00 0 0 0
2402 1 1.5472763293393996e+01 1.5624941154196566e+01 1.5009305888245306e+00 0 0 0
2401 1 1.4081297656639059e+01 1.4228979135797292e+01 4.9175128407783028e-02 0 0 0
2853 1 1.6953383541661829e+01 1.4248595496798094e+01 2.7872692847502707e+00 0 0 0
2852 1 1.8308730551263043e+01 1.5669704129180547e+01 1.3961503576970258e+00 0 0 0
2851 1 1.6926428641704543e+01 1.4292036871995620e+01 9.0408404125719488e-02 0 0 0
3303 1 1.9932158528002020e+01 1.4186715842528859e+01 2.9085498428359187e+00 0 0 0
3302 1 2.1359261662093257e+01 1.5735189836339176e+01 1.4887546458737890e+00 0 0 0
3301 1 1.9840902268698279e+01 1.4195864834422375e+01 1.3565784706452533e-01 0 0 0
3753 1 2.2709442162960659e+01 1.4242349710777061e+01 2.9356375631771336e+00 0 0 0
3752 1 2.4420883922344633e+01 1.5545913004665026e+01 1.5039203992671195e+00 0 0 0
3751 1 2.2821732378811490e+01 1.4223714469174194e+01 1.6991106002510539e-01 0 0 0
4203 1 2.5759966306120333e+01 1.4143098199612066e+01 2.8886029925776673e+00 0 0 0
4202 1 2.7267352606368462e+01 1.5634417004742625e+01 1.5315991734810137e+00 0 0 0
4201 1 2.5770430440201739e+01 1.4174866092582182e+01 9.9914615903204773e-02 0 0 0
182 1 1.3402821135764840e+00 1.8365224937360512e+01 1.5663584265107058e+00 0 0 0
633 1 2.7865686776934830e+00 1.7115885041240116e+01 3.1298877441135136e+00 0 0 0
631 1 2.8746681722707037e+00 1.6991508483746017e+01 2.6436414381981704e-01 0 0 0
211 1 2.9003241048251027e-02 1.9707215312016601e+01 1.8417534390006304e-01 0 0 0
183 1 1.7854734569752395e-02 1.7106986532692687e+01 2.9245540265575412e+00 0 0 0
632 1 4.1558554402308614e+00 1.8484815278657361e+01 1.6102689686031351e+00 0 0 0
1083 1 5.6503805554280788e+00 1.7081788247941542e+01 3.1179816401183866e+00 0 0 0
1081 1 5.6647508020922643e+00 1.7213007168964381e+01 2.4877605278007753e-01 0 0 0
1082 1 7.0148458813045007e+00 1.8418047918232247e+01 1.6450689394102331e+00 0 0 0
1533 1 8.3951921345045335e+00 1.6806595111470539e+01 2.9769844134247987e+00 0 0 0
1531 1 8.3143117956613022e+00 1.7105463721388332e+01 1.0296990834067815e-01 0 0 0
1532 1 9.7045180549856500e+00 1.8602262709082382e+01 1.5985544976169457e+00 0 0 0
1983 1 1.1223926603733570e+01 1.7013711066869902e+01 2.8343100636105278e+00 0 0 0
1981 1 1.1153161814286083e+01 1.7077334648955336e+01 1.6088862142233123e-01 0 0 0
1982 1 1.2796527053657019e+01 1.8429144880586975e+01 1.5340163895940810e+00 0 0 0
2433 1 1.4075358510756313e+01 1.7002364304201020e+01 2.9130225078183947e+00 0 0 0
2431 1 1.4134345320549963e+01 1.7044345038522803e+01 1.8485273677216441e-01 0 0 0
2432 1 1.5725898616700693e+01 1.8348711525853080e+01 1.5483442032954713e+00 0 0 0
2882 1 1.8428554209620703e+01 1.8420643638514033e+01 1.5244994885898742e+00 0 0 0
2883 1 1.7031312868150508e+01 1.6908335898781196e+01 2.9179288141886479e+00 0 0 0
2881 1 1.7077453268375677e+01 1.7107827503187295e+01 1.4269444711693779e-02 0 0 0
3333 1 1.9912503731755933e+01 1.7113625385038080e+01 2.9730798835897332e+00 0 0 0
3332 1 2.1322531659547316e+01 1.8455687711521012e+01 1.4624757030781474e+00 0 0 0
3331 1 1.9965847439163078e+01 1.7009783549174269e+01 5.1533130151167981e-03 0 0 0
3361 1 1.9849524023829215e+01 1.9681782159535782e+01 3.3460783665927571e-02 0 0 0
3782 1 2.4229844084120238e+01 1.8460681120471655e+01 1.5075431304217577e+00 0 0 0
3783 1 2.2846842585013512e+01 1.7045894641734559e+01 2.9124229019311696e+00 0 0 0
4232 1 2.7240811856627797e+01 1.8603950863984945e+01 1.5312176222878828e+00 0 0 0
4233 1 2.5692079468194049e+01 1.7054553607977116e+01 2.9796507607665275e+00 0 0 0
4231 1 2.5791809813611067e+01 1.7110845522257677e+01 2.1656968601627025e-01 0 0 0
212 1 1.3423772706984121e+00 2.1264585811545722e+01 1.5961104519589135e+00 0 0 0
663 1 2.8071086352518750e+00 1.9926842756305181e+01 3.0403717179343803e+00 0 0 0
693 1 2.6831259146533233e+00 2.2798091166908023e+01 3.0257797956329719e+00 0 0 0
691 1 2.6291085340566962e+00 2.2701137391324796e+01 1.3913986443895845e-01 0 0 0
661 1 2.8174035213079733e+00 1.9816803129581608e+01 1.7424082057371545e-01 0 0 0
1113 1 5.7094136819611325e+00 1.9902447581007294e+01 2.9821488490042332e+00 0 0 0
662 1 4.1326969084029024e+00 2.1253604851961388e+01 1.5439207740310668e+00 0 0 0
1143 1 5.5520691077968722e+00 2.2722057732540300e+01 2.8521621302143298e+00 0 0 0
1111 1 5.5771814433676079e+00 1.9893429892104947e+01 2.4402525810452338e-01 0 0 0
1141 1 5.5757667743995549e+00 2.2651697173766589e+01 9.2060651970005500e-02 0 0 0
1112 1 7.0471928115906222e+00 2.1400498896376451e+01 1.4349673426805687e+00 0 0 0
1563 1 8.2042671717571150e+00 1.9967172073495750e+01 2.8829499075018825e+00 0 0 0
1593 1 8.3746477858490262e+00 2.2803690784477332e+01 2.8809379851808501e+00 0 0 0
1561 1 8.3976924899883070e+00 1.9993908277734821e+01 4.8214908394799687e-02 0 0 0
1562 1 9.6682502565017110e+00 2.1349106295038261e+01 1.5053416181866870e+00 0 0 0
2013 1 1.1323112612591018e+01 1.9918603832312080e+01 2.9428463711250439e+00 0 0 0
2043 1 1.1163533486227314e+01 2.2787581811093169e+01 2.8166611609862056e+00 0 0 0
2011 1 1.1324804477313931e+01 1.9841540994313899e+01 2.7546458914749772e-01 0 0 0
2041 1 1.1211911713310064e+01 2.2739407966573602e+01 1.9607880345379214e-01 0 0 0
2012 1 1.2837997751686144e+01 2.1285631711127227e+01 1.5856876223443848e+00 0 0 0
2463 1 1.4266959137900216e+01 1.9943618567070686e+01 3.0175540474075455e+00 0 0 0
2493 1 1.4190026570972741e+01 2.2794470948510664e+01 2.9871598449052379e+00 0 0 0
2461 1 1.4137464461947372e+01 1.9829853594897831e+01 2.0360723477443896e-01 0 0 0
2491 1 1.4184218178441952e+01 2.2731781553792352e+01 6.1841935042440579e-02 0 0 0
2462 1 1.5614522650472646e+01 2.1332522498770697e+01 1.4841284366560985e+00 0 0 0
2913 1 1.6955115732262080e+01 1.9781172680134546e+01 2.9953557628021703e+00 0 0 0
2912 1 1.8553530427002741e+01 2.1241398819662781e+01 1.4679304299559488e+00 0 0 0
2943 1 1.7127525874033434e+01 2.2761430697235596e+01 2.8811154160287233e+00 0 0 0
2941 1 1.7016162093752886e+01 2.2801345288501601e+01 1.5408178777925977e-01 0 0 0
2911 1 1.7028684222242443e+01 1.9877208649869232e+01 2.4935418985768690e-02 0 0 0
3363 1 1.9894441933597324e+01 1.9803132774965793e+01 2.9677954969163589e+00 0 0 0
3362 1 2.1233898148915841e+01 2.1252188764994408e+01 1.4027539294181863e+00 0 0 0
3393 1 1.9947344141310470e+01 2.2725054713255986e+01 2.8446819648634474e+00 0 0 0
3391 1 1.9848198195788086e+01 2.2781440947802402e+01 5.4649095581533184e-02 0 0 0
3813 1 2.2880780595459203e+01 1.9895086302685577e+01 2.8931641520000095e+00 0 0 0
3812 1 2.4284530967645566e+01 2.1379408351982814e+01 1.5588079339520251e+00 0 0 0
3843 1 2.2744467269394008e+01 2.2829129583942933e+01 2.8311026506375443e+00 0 0 0
3841 1 2.2895508541670097e+01 2.2691836984919782e+01 6.0620674144074025e-03 0 0 0
3811 1 2.2765718254413368e+01 1.9801433942163285e+01 3.6363072262252036e-02 0 0 0
4263 1 2.5887668377984618e+01 1.9968083686859224e+01 3.0163261708314622e+00 0 0 0
4262 1 2.7295980004215217e+01 2.1344236881417228e+01 1.4371179559067098e+00 0 0 0
4293 1 2.5731352000920054e+01 2.2748941310540104e+01 2.9460946376272950e+00 0 0 0
4291 1 2.5821122066389119e+01 2.2907823375736214e+01 1.5184021010768325e-01 0 0 0
4261 1 2.5752309885192592e+01 2.0096509163050335e+01 1.1931206215321490e-01 0 0 0
242 1 1.3274484522326833e+00 2.4136738131589233e+01 1.5348992333943490e+00 0 0 0
723 1 2.8145900082626651e+00 2.5565964997801945e+01 2.9132537736787518e+00 0 0 0
273 1 6.7904325621412909e-03 2.5658673184854731e+01 2.8953898323256926e+00 0 0 0
692 1 4.1692892515284719e+00 2.4051361707691974e+01 1.4704961084453085e+00 0 0 0
1173 1 5.6323794921751889e+00 2.5600851656718973e+01 2.7819079727264642e+00 0 0 0
1142 1 7.0317696271840822e+00 2.4177722874332922e+01 1.2085602382813188e+00 0 0 0
1623 1 8.3434722336749800e+00 2.5541153071630184e+01 2.7774330353213301e+00 0 0 0
1621 1 8.4416939699972264e+00 2.5520337196830084e+01 1.8181831893805622e-02 0 0 0
1592 1 9.8971143519051186e+00 2.4170956762831029e+01 1.2829611238265082e+00 0 0 0
2073 1 1.1269857844445358e+01 2.5689327184812729e+01 2.6594764178300698e+00 0 0 0
2071 1 1.1336426126869599e+01 2.5713537957343849e+01 1.4610581025252642e-04 0 0 0
2042 1 1.2762628719185843e+01 2.4195207057231016e+01 1.4665496524311852e+00 0 0 0
2523 1 1.4087362626266986e+01 2.5557866740994537e+01 2.8739261486256544e+00 0 0 0
2492 1 1.5661249126451359e+01 2.4089637045671743e+01 1.5309013303603392e+00 0 0 0
2521 1 1.4342583542236058e+01 2.5613232794999213e+01 2.5185842655812624e-01 0 0 0
2942 1 1.8610755762452236e+01 2.4312023080033690e+01 1.4453871450468696e+00 0 0 0
2973 1 1.7166814421222604e+01 2.5536860953954779e+01 2.9623645561050198e+00 0 0 0
2971 1 1.7123195269955229e+01 2.5638154029283033e+01 9.4877266507021635e-02 0 0 0
3423 1 2.0067015155916060e+01 2.5705977591948169e+01 2.7928477314785045e+00 0 0 0
3392 1 2.1480321161070115e+01 2.4075906129554774e+01 1.3769690949818962e+00 0 0 0
3842 1 2.4424632002179305e+01 2.4192756512673878e+01 1.5760218143602505e+00 0 0 0
3873 1 2.2762733938033868e+01 2.5679984737995710e+01 3.0025800354649368e+00 0 0 0
3871 1 2.2927981502050265e+01 2.5770768557747711e+01 1.3327399852205160e-01 0 0 0
4292 1 2.7335825725660783e+01 2.4369722488179502e+01 1.4632365738418631e+00 0 0 0
4323 1 2.5713922429119862e+01 2.5634051418781151e+01 2.8686298529032492e+00 0 0 0
272 1 1.4787255877177403e+00 2.7024291251363469e+01 1.4402130884331019e+00 0 0 0
753 1 2.8540707078681997e+00 2.8362210320412103e+01 2.8054481121096178e+00 0 0 0
751 1 2.7220715455403046e+00 2.8546449559668730e+01 1.0509773197812677e-01 0 0 0
722 1 4.2363442463377545e+00 2.6976453777238927e+01 1.3362807954886009e+00 0 0 0
1203 1 5.4383349618363672e+00 2.8473914378587555e+01 2.8326379002578066e+00 0 0 0
1201 1 5.6304595726861955e+00 2.8527992346702131e+01 9.5448645737191015e-02 0 0 0
1172 1 7.1558791960144044e+00 2.7084806668846216e+01 1.4465474292012066e+00 0 0 0
1653 1 8.4738856875108688e+00 2.8462850857528974e+01 3.0973816875350724e+00 0 0 0
1651 1 8.4714580306894280e+00 2.8563689630039669e+01 6.7574658231125545e-02 0 0 0
1622 1 9.8081878580694308e+00 2.7160383783121233e+01 1.4393744415113625e+00 0 0 0
2103 1 1.1297221719884067e+01 2.8608070525107376e+01 2.9925111458313651e+00 0 0 0
2101 1 1.1455788497240759e+01 2.8655953239584242e+01 1.6676927498054858e-01 0 0 0
2072 1 1.2815102991837241e+01 2.7090922147005312e+01 1.5064357112474926e+00 0 0 0
2553 1 1.4168049236986786e+01 2.8549832903383884e+01 3.1287831496917224e+00 0 0 0
2522 1 1.5679090022071884e+01 2.6922938744631438e+01 1.6392818548782420e+00 0 0 0
2551 1 1.4214822349317652e+01 2.8547368170992005e+01 1.8642894032198218e-01 0 0 0
2972 1 1.8422095837679912e+01 2.6952642851454254e+01 1.5624740340789118e+00 0 0 0
3003 1 1.7149358212677068e+01 2.8429078568481984e+01 3.1099536647374948e+00 0 0 0
3001 1 1.7050830859204510e+01 2.8399999668739166e+01 2.1980737286919833e-01 0 0 0
3422 1 2.1432815956746172e+01 2.7056335569834012e+01 1.5153486208585267e+00 0 0 0
3453 1 1.9909957351760792e+01 2.8420368120809513e+01 2.9623439658105397e+00 0 0 0
3451 1 1.9984456951106115e+01 2.8474764983327024e+01 4.7818217827426276e-02 0 0 0
3872 1 2.4258487223864599e+01 2.7128636194913891e+01 1.5063141934702202e+00 0 0 0
3903 1 2.2923051092122282e+01 2.8527877020658114e+01 3.0378379280040151e+00 0 0 0
3901 1 2.2900272208774648e+01 2.8644069650980139e+01 1.5254521786102104e-01 0 0 0
4322 1 2.7351914838181052e+01 2.7019908472666366e+01 1.4974717894397291e+00 0 0 0
4353 1 2.5778850679852233e+01 2.8306773301639176e+01 2.9141416389802721e+00 0 0 0
4351 1 2.5760009697831293e+01 2.8532458616864602e+01 6.6695954889781223e-02 0 0 0
302 1 1.2569800118645014e+00 2.9888430642611318e+01 1.4597560172891171e+00 0 0 0
783 1 2.7519521497228077e+00 3.1363910132718694e+01 2.9666651694463009e+00 0 0 0
332 1 1.2332898585316081e+00 3.2843161786873040e+01 1.5027061472803653e+00 0 0 0
781 1 2.7428498716242449e+00 3.1345704467577537e+01 2.0223126696436899e-01 0 0 0
752 1 4.0263821948346790e+00 2.9924436494911699e+01 1.4700491147256196e+00 0 0 0
1233 1 5.5982086597941771e+00 3.1174331034417563e+01 2.9643426951604703e+00 0 0 0
1231 1 5.4968655911359141e+00 3.1386726909966089e+01 2.6130032566636802e-01 0 0 0
782 1 4.2129452467614623e+00 3.2933306714023026e+01 1.5934681811220912e+00 0 0 0
1202 1 7.0419941763892142e+00 2.9870893471699890e+01 1.6981169459103864e+00 0 0 0
1683 1 8.5267148056051454e+00 3.1341487411331627e+01 2.9261212916213277e+00 0 0 0
1681 1 8.3495188049643048e+00 3.1470621094169495e+01 2.5841066784559841e-01 0 0 0
1232 1 6.9029984711520793e+00 3.2799482542434667e+01 1.6043988045039566e+00 0 0 0
1652 1 9.9215807040643433e+00 3.0043154463000196e+01 1.6324670975878948e+00 0 0 0
2133 1 1.1427177052558724e+01 3.1450925025803670e+01 2.9393394342417620e+00 0 0 0
1682 1 9.9370409399044402e+00 3.2890394794233551e+01 1.5048082023681504e+00 0 0 0
2131 1 1.1352330052384433e+01 3.1424694427862352e+01 7.1583587174298913e-02 0 0 0
2132 1 1.2622484943962128e+01 3.2912029750869820e+01 1.5234978088847768e+00 0 0 0
2102 1 1.2767407830480886e+01 2.9882360822466623e+01 1.6752923854937127e+00 0 0 0
2583 1 1.4194001711856160e+01 3.1397927086120106e+01 3.0260986749416241e+00 0 0 0
2581 1 1.4137740385397452e+01 3.1311164598252002e+01 2.1975605019871972e-01 0 0 0
2552 1 1.5689989161449883e+01 2.9860596574974302e+01 1.8238576454484534e+00 0 0 0
2582 1 1.5694601210424644e+01 3.2831378610325864e+01 1.6526144662708293e+00 0 0 0
3002 1 1.8425995803363872e+01 2.9745439086275990e+01 1.5208594911931921e+00 0 0 0
3033 1 1.7073751349719256e+01 3.1502680512839706e+01 3.1443621754838560e+00 0 0 0
3032 1 1.8384321529313837e+01 3.2694900238402546e+01 1.5579941939792159e+00 0 0 0
3031 1 1.6898374246325826e+01 3.1268869104278966e+01 1.8766620253525440e-01 0 0 0
3452 1 2.1330023913371907e+01 2.9889362936857808e+01 1.6222184138492863e+00 0 0 0
3483 1 1.9985699926367637e+01 3.1402393418521957e+01 2.9195757294474425e+00 0 0 0
3482 1 2.1306421741810109e+01 3.2833389502753292e+01 1.5243003367195451e+00 0 0 0
3481 1 1.9896543718640231e+01 3.1458897578332323e+01 1.7996368826363435e-01 0 0 0
3902 1 2.4443475741245464e+01 2.9912570926734617e+01 1.6541178263220802e+00 0 0 0
3933 1 2.2849283305280952e+01 3.1393673255331446e+01 2.9576765723239986e+00 0 0 0
3932 1 2.4374003034272587e+01 3.2765269976787295e+01 1.5192040205025055e+00 0 0 0
3931 1 2.2822622951503170e+01 3.1337664875310512e+01 9.7791727189892735e-02 0 0 0
4381 1 2.5705891549247596e+01 3.1305061593647441e+01 1.3227054768449817e-01 0 0 0
4352 1 2.7177231976462465e+01 2.9907118807619160e+01 1.6263503446899965e+00 0 0 0
4383 1 2.5784544017908459e+01 3.1384038908154995e+01 2.9919207673241663e+00 0 0 0
4382 1 2.7111998176873648e+01 3.2819066047999605e+01 1.4859782758781297e+00 0 0 0
813 1 2.6360559613863814e+00 3.4265394991168989e+01 2.8178027154155370e+00 0 0 0
362 1 1.3155154305696264e+00 3.5704092445230486e+01 1.3919478406439436e+00 0 0 0
811 1 2.8172446623708116e+00 3.4320479549803011e+01 1.6785945518334319e-01 0 0 0
1263 1 5.4713861904387011e+00 3.4325216267916247e+01 3.1868000559195324e+00 0 0 0
812 1 4.0852615577157216e+00 3.5700287293390303e+01 1.6513553874313074e+00 0 0 0
1261 1 5.6189645397262424e+00 3.4409017229039122e+01 2.9281794709383868e-01 0 0 0
1713 1 8.4215082313207699e+00 3.4304271507018200e+01 2.9895233598351232e+00 0 0 0
1262 1 6.9152894952323933e+00 3.5840263167548223e+01 1.5963998995853890e+00 0 0 0
1711 1 8.2416961619907561e+00 3.4317104790961409e+01 3.6233844479930921e-01 0 0 0
2163 1 1.1304250265755931e+01 3.4330809170787710e+01 3.0151102268656098e+00 0 0 0
1712 1 9.7757915430411106e+00 3.5804114628632789e+01 1.6501895277132967e+00 0 0 0
2161 1 1.1314191978044981e+01 3.4384047980900952e+01 1.9639981172355786e-01 0 0 0
2162 1 1.2760095722274071e+01 3.5773835596770944e+01 1.5608480775882212e+00 0 0 0
2613 1 1.4216896989696782e+01 3.4348933143877986e+01 2.9764404443628698e+00 0 0 0
2611 1 1.4168313305100812e+01 3.4236302471999238e+01 2.9538708324317120e-01 0 0 0
2612 1 1.5654629496946839e+01 3.5755503130734709e+01 1.6051183610851594e+00 0 0 0
3063 1 1.7097199853295368e+01 3.4342257771309164e+01 2.9995302597301898e+00 0 0 0
3062 1 1.8510170860919285e+01 3.5603923115078921e+01 1.5469141855892923e+00 0 0 0
3061 1 1.6888984298187822e+01 3.4307947533931383e+01 5.1802280030721633e-02 0 0 0
3513 1 1.9952575144461697e+01 3.4326644940406595e+01 2.9962954433238278e+00 0 0 0
3512 1 2.1339000609139941e+01 3.5584374467326491e+01 1.5416867990373182e+00 0 0 0
3511 1 1.9827879342889045e+01 3.4267869800129780e+01 1.4257150564443591e-01 0 0 0
3963 1 2.2885210592138069e+01 3.4221997435615272e+01 2.8119386397728618e+00 0 0 0
3962 1 2.4223352981668640e+01 3.5650065478056355e+01 1.4499623514669611e+00 0 0 0
3961 1 2.2668963661253883e+01 3.4185768116836272e+01 1.0526462464494597e-01 0 0 0
4413 1 2.5646163577251592e+01 3.4388417598273378e+01 2.8869808127718892e+00 0 0 0
4412 1 2.7124720800621713e+01 3.5609956657304764e+01 1.4220369498813590e+00 0 0 0
4411 1 2.5643774353499289e+01 3.4243833982935890e+01 2.0636168678393924e-02 0 0 0
392 1 1.2328526867190934e+00 3.8722572092924324e+01 1.4178146492277339e+00 0 0 0
843 1 2.5702627431055571e+00 3.7221178291858358e+01 2.8652704149850190e+00 0 0 0
841 1 2.7431918893888776e+00 3.7274886475871398e+01 2.6771851915373557e-01 0 0 0
842 1 4.1150067788696489e+00 3.8762885670006071e+01 1.5353413933606628e+00 0 0 0
1293 1 5.4088158399978106e+00 3.7159098898303604e+01 3.0012123267431408e+00 0 0 0
1291 1 5.6689692311941702e+00 3.7224529660047018e+01 2.5869894184940262e-01 0 0 0
1292 1 6.9397481616714654e+00 3.8689722560217518e+01 1.6650302530532259e+00 0 0 0
1743 1 8.4099081620578389e+00 3.7269662424368448e+01 2.7680749471921500e+00 0 0 0
1741 1 8.4526313758041827e+00 3.7230237698498001e+01 1.5357255930211458e-01 0 0 0
1742 1 9.8220164703020938e+00 3.8654933225821722e+01 1.6149787267157500e+00 0 0 0