LAMMPS data file via write_data, version 7 Aug 2019, timestep = 27000

9000 atoms
1 atom types

-1.2454929418246455e-04 5.7106124549294186e+01 xlo xhi
-9.3411970636848420e-05 4.2829593411970642e+01 ylo yhi
-9.3411970636848420e-05 4.2829593411970642e+01 zlo zhi

Masses

1 56

Atoms # atomic

2 1 1.4869823960719921e+00 1.3917456572503089e+00 1.3876380686710648e+00 0 0 0
483 1 2.8049965518049400e+00 2.8219503475270917e+00 2.8122174184165605e+00 0 0 0
453 1 2.9284683364261190e+00 7.0393427992833324e-02 2.9231981490653633e+00 0 0 0
31 1 1.0870147780576957e-01 2.8640950603321800e+00 1.3419236820062252e-01 0 0 0
33 1 5.5970124210752203e-02 2.7939010757610707e+00 2.8977354416380807e+00 0 0 0
452 1 4.3311891086731764e+00 1.4525548816497278e+00 1.4038176526230022e+00 0 0 0
933 1 5.6753794222130978e+00 2.7437735069259577e+00 2.8646278281449984e+00 0 0 0
902 1 7.0685544905690723e+00 1.5351524200836630e+00 1.3413833847859675e+00 0 0 0
1383 1 8.6798960303246488e+00 2.8103471939970364e+00 2.7104031882448716e+00 0 0 0
1352 1 9.9091236798438107e+00 1.1866265956582271e+00 1.4075641641379710e+00 0 0 0
1833 1 1.1304157002224745e+01 2.7323619898748790e+00 2.6354279646892893e+00 0 0 0
1802 1 1.2934901361036404e+01 1.4314475788965129e+00 1.2985294197153454e+00 0 0 0
2283 1 1.4241134172734450e+01 2.8179484422167764e+00 2.8232679260243363e+00 0 0 0
2731 1 1.5835104042883138e+01 1.3727389063402002e+00 1.2935971918903146e+00 0 0 0
2252 1 1.4396403385297768e+01 1.2288548771170624e-01 2.7518359608434344e+00 0 0 0
2702 1 1.8578356288715351e+01 1.4284908264348604e+00 1.3754598161122820e+00 0 0 0
2733 1 1.7073657826589159e+01 2.7964701612263636e+00 2.8019805880336937e+00 0 0 0
2703 1 1.7119782840958848e+01 5.3994642117963565e-02 2.7974833710118290e+00 0 0 0
3183 1 2.0000516539410658e+01 2.8803175017850213e+00 2.8834361349707169e+00 0 0 0
3152 1 2.1526419379761020e+01 1.4965934167548121e+00 1.3356880599953582e+00 0 0 0
3153 1 1.9989974012964044e+01 1.4404286495944307e-01 2.7545873495039621e+00 0 0 0
3602 1 2.4264239544342161e+01 1.3727108287373648e+00 1.5159113329666458e+00 0 0 0
3633 1 2.2787829210876378e+01 2.8856196111439001e+00 2.8709468268377449e+00 0 0 0
3631 1 2.2876502105001979e+01 2.8148587165895713e+00 2.9174061327367440e-02 0 0 0
4052 1 2.7143124764593320e+01 1.4156786129543382e+00 1.5445570804296911e+00 0 0 0
4083 1 2.5587677156500821e+01 2.9257894277189966e+00 2.8579888132363664e+00 0 0 0
4051 1 2.5786272876142771e+01 1.7951260601362781e-01 1.1803955663968514e-01 0 0 0
4531 1 2.8535408187044478e+01 2.8883525093918410e+00 2.1896173514615005e-01 0 0 0
4081 1 2.5669051280543457e+01 2.8536178291118190e+00 7.9710647899156495e-02 0 0 0
32 1 1.4781022606689136e+00 4.2400393648267620e+00 1.4735815747085135e+00 0 0 0
513 1 2.8948231935621864e+00 5.6395056984774783e+00 2.8104556889865471e+00 0 0 0
63 1 4.4972964528504633e-02 5.6825437007012756e+00 2.8440030782795014e+00 0 0 0
482 1 4.3126715729471039e+00 4.1604779084180059e+00 1.3504662322543532e+00 0 0 0
963 1 5.7466873970343180e+00 5.6541758694355693e+00 2.7183943372196269e+00 0 0 0
932 1 7.2211740954044359e+00 4.2244575534023161e+00 1.3024917943094403e+00 0 0 0
1413 1 8.5582447676073841e+00 5.7061029207173020e+00 2.8464391121073338e+00 0 0 0
1411 1 8.5741611278171543e+00 5.7328789038270394e+00 5.1159274867856652e-02 0 0 0
1382 1 9.9687122371142252e+00 4.3755909943641891e+00 1.4087419867941253e+00 0 0 0
1863 1 1.1484717342476461e+01 5.8059678436842486e+00 2.7503771860623276e+00 0 0 0
1832 1 1.2788876357798321e+01 4.3340047483696020e+00 1.2835383636063431e+00 0 0 0
2313 1 1.4365344633456182e+01 5.6682965740182016e+00 2.7654317563022297e+00 0 0 0
2282 1 1.5733755932003994e+01 4.1396382209607756e+00 1.4464806376289310e+00 0 0 0
2732 1 1.8578294447578603e+01 4.3902495405133513e+00 1.3765456020000160e+00 0 0 0
2763 1 1.7106217929111001e+01 5.6264331237615473e+00 2.8415386774201590e+00 0 0 0
3213 1 2.0064788274974390e+01 5.8052650221260480e+00 2.7796348669450164e+00 0 0 0
3182 1 2.1426476758313143e+01 4.3912968912750401e+00 1.2918208874045849e+00 0 0 0
3632 1 2.4212504581984920e+01 4.3829097956788470e+00 1.6059867287827256e+00 0 0 0
3663 1 2.2714338833547821e+01 5.8441667635703034e+00 2.8883159144250716e+00 0 0 0
3661 1 2.2828950103554316e+01 5.7686191405509524e+00 2.0259695238777908e-03 0 0 0
4082 1 2.6980904350685467e+01 4.3418962253718396e+00 1.5348224178573280e+00 0 0 0
4113 1 2.5689938453140407e+01 5.6900655847629755e+00 2.9363431058970759e+00 0 0 0
4561 1 2.8517906584836563e+01 5.7164427018482131e+00 8.9327127285437680e-02 0 0 0
4111 1 2.5680552924722811e+01 5.6535558902961300e+00 1.0155960248678804e-02 0 0 0
4563 1 2.8551733356698904e+01 5.6855158953278924e+00 2.9216588311659701e+00 0 0 0
62 1 1.5967392539362872e+00 7.1468804491086582e+00 1.5164957296016681e+00 0 0 0
543 1 2.9498138931803313e+00 8.6817544123394956e+00 2.7055349130920132e+00 0 0 0
91 1 9.6489991935735722e-02 8.4450734777954288e+00 9.5461761788598665e-02 0 0 0
93 1 2.4688085078308908e-01 8.6119370555931791e+00 2.8597123404823650e+00 0 0 0
512 1 4.3725945446685426e+00 7.0895999777306864e+00 1.4054047805448635e+00 0 0 0
993 1 5.7619345655735250e+00 8.5552479284778471e+00 2.8489651130882176e+00 0 0 0
962 1 7.2319541647692072e+00 7.1671899802555163e+00 1.3667434772368294e+00 0 0 0
1443 1 8.6465908516556453e+00 8.6190254589525512e+00 2.9631140926697310e+00 0 0 0
1412 1 1.0005130251595478e+01 7.1763127824353896e+00 1.5468558568052730e+00 0 0 0
1893 1 1.1586634315743778e+01 8.5653900375035175e+00 2.9047031724533730e+00 0 0 0
1862 1 1.2819346269527278e+01 7.1735589501741863e+00 1.3331851315719432e+00 0 0 0
2343 1 1.4360401041231148e+01 8.6980032927371163e+00 2.6633807207753533e+00 0 0 0
2312 1 1.5708799483591360e+01 7.1774120953119631e+00 1.3505507076299232e+00 0 0 0
2762 1 1.8485326275186051e+01 7.1217784435121994e+00 1.5094411224700444e+00 0 0 0
2793 1 1.7093887199630625e+01 8.7146296219955648e+00 2.7359239513963285e+00 0 0 0
3212 1 2.1469853949989286e+01 7.2045342524713814e+00 1.4288349319950733e+00 0 0 0
3243 1 1.9965853485859022e+01 8.6352094450937642e+00 2.8452336678863168e+00 0 0 0
3241 1 1.9958062616957893e+01 8.6479333000639720e+00 3.5315349528254103e-02 0 0 0
3662 1 2.4129027304746188e+01 7.1422630030483703e+00 1.4892216335803168e+00 0 0 0
3693 1 2.2845196988890777e+01 8.5636885813388588e+00 2.7850228088926943e+00 0 0 0
3691 1 2.2779249538991394e+01 8.7352329461426734e+00 9.3642369598896380e-03 0 0 0
4112 1 2.7009966963305445e+01 7.1212365343699053e+00 1.4036259912389377e+00 0 0 0
4143 1 2.5571703173878021e+01 8.5955565300781789e+00 2.8581502119835505e+00 0 0 0
4141 1 2.5737696470864933e+01 8.5643138684023903e+00 1.2824724078173574e-01 0 0 0
4591 1 2.8389521399279481e+01 8.6197879136692244e+00 5.4223133622606105e-02 0 0 0
4593 1 2.8426909921612584e+01 8.6880168027491660e+00 2.8611732682042970e+00 0 0 0
92 1 1.4866972673972756e+00 1.0038949156862916e+01 1.3896650668776660e+00 0 0 0
573 1 2.9131478263728372e+00 1.1474128357482613e+01 2.9150426264265592e+00 0 0 0
122 1 1.4434144402422464e+00 1.2915622249414289e+01 1.4715349682135723e+00 0 0 0
121 1 8.2914683710409817e-02 1.1368202764736505e+01 1.1381426700459940e-02 0 0 0
123 1 4.7866093073729132e-02 1.1346903889478323e+01 2.7431237416143781e+00 0 0 0
542 1 4.3844807188609378e+00 1.0051334159707794e+01 1.1174436151227769e+00 0 0 0
1023 1 5.7511793432551608e+00 1.1394443675880909e+01 2.8797482559812195e+00 0 0 0
572 1 4.4420638836360720e+00 1.2781532639224819e+01 1.4772139220304337e+00 0 0 0
992 1 7.2543436214052717e+00 9.9848672651222721e+00 1.4310285080962462e+00 0 0 0
1473 1 8.6859075598153765e+00 1.1328167692519875e+01 2.9602141054512794e+00 0 0 0
1022 1 7.1080184823755950e+00 1.2863210424463057e+01 1.2805248500074602e+00 0 0 0
1442 1 1.0174542036439718e+01 9.9763230818497330e+00 1.3461902404266721e+00 0 0 0
1923 1 1.1495015086502676e+01 1.1513286177579770e+01 2.7465975386147621e+00 0 0 0
1472 1 1.0054233130263322e+01 1.2872030372988359e+01 1.2934663335997527e+00 0 0 0
1892 1 1.2796351575802687e+01 9.9845362444344836e+00 1.2342524432487603e+00 0 0 0
1922 1 1.2836717365900341e+01 1.2854400848830263e+01 1.3970664082250781e+00 0 0 0
2373 1 1.4292411106084725e+01 1.1451905608460974e+01 2.7377101022266190e+00 0 0 0
2342 1 1.5728058177591453e+01 1.0051776815390594e+01 1.2177502642361868e+00 0 0 0
2372 1 1.5825790369334236e+01 1.2870981381550710e+01 1.3009275557018301e+00 0 0 0
2792 1 1.8571586374055762e+01 1.0057943736988635e+01 1.2858084846784288e+00 0 0 0
2823 1 1.7146607159940313e+01 1.1532628186454778e+01 2.6891997894404023e+00 0 0 0
2822 1 1.8590977273721006e+01 1.2853108904624579e+01 1.2869860536304016e+00 0 0 0
3242 1 2.1340965752530078e+01 1.0032321478427985e+01 1.2861792338730544e+00 0 0 0
3273 1 2.0063562813512366e+01 1.1469159566736234e+01 2.7793969948006385e+00 0 0 0
3272 1 2.1444886696006240e+01 1.2882390748934474e+01 1.2391219061074972e+00 0 0 0
3692 1 2.4325028688144119e+01 9.9843218822730950e+00 1.3840204680451993e+00 0 0 0
3723 1 2.2867379334536633e+01 1.1444146153035492e+01 2.6641326914539540e+00 0 0 0
3722 1 2.4228328230431181e+01 1.2905682203743966e+01 1.4135802891687503e+00 0 0 0
4142 1 2.7084387978732707e+01 1.0065631240147544e+01 1.5224403131166215e+00 0 0 0
4173 1 2.5738539999437268e+01 1.1477609710457193e+01 2.8046980990089296e+00 0 0 0
4172 1 2.7239462654570808e+01 1.2849134065082831e+01 1.3983882809622248e+00 0 0 0
603 1 2.8854332020379894e+00 1.4246508154930059e+01 2.9406766296632281e+00 0 0 0
152 1 1.5767683855674488e+00 1.5833253729192633e+01 1.4509185376302576e+00 0 0 0
151 1 8.0613443168645937e-02 1.4289752416790780e+01 1.4895661212591449e-02 0 0 0
153 1 7.0710268529381892e-02 1.4266439732586228e+01 2.7243626654264963e+00 0 0 0
1053 1 5.7926260084240830e+00 1.4262506739687979e+01 2.8811499803583449e+00 0 0 0
602 1 4.2220373344211355e+00 1.5754208460947696e+01 1.5909198655808712e+00 0 0 0
1503 1 8.6347928023021296e+00 1.4299125793065642e+01 2.6704779402670145e+00 0 0 0
1052 1 7.1640436510512107e+00 1.5718692667188815e+01 1.3046719855434772e+00 0 0 0
1953 1 1.1552308056247066e+01 1.4211994865180429e+01 2.7473851235701434e+00 0 0 0
1502 1 1.0104801812093250e+01 1.5824213833613683e+01 1.3247013875726572e+00 0 0 0
1952 1 1.2820264516476220e+01 1.5549631476902700e+01 1.2731152847365195e+00 0 0 0
2403 1 1.4431871828318654e+01 1.4154396560489728e+01 2.6080106922311614e+00 0 0 0
2402 1 1.5671336563645815e+01 1.5766870812231295e+01 1.2706281035726392e+00 0 0 0
2853 1 1.7258002535386385e+01 1.4356298713619999e+01 2.7265996200984244e+00 0 0 0
2852 1 1.8491647410826133e+01 1.5574592076365024e+01 1.1702168164929283e+00 0 0 0
3303 1 2.0030331124856129e+01 1.4337946295534115e+01 2.6781773670246856e+00 0 0 0
3302 1 2.1502075451597815e+01 1.5804390341751862e+01 1.2553145461878732e+00 0 0 0
3753 1 2.2849648689896128e+01 1.4232822969989705e+01 2.7822674025256386e+00 0 0 0
3752 1 2.4359957297111812e+01 1.5645315736570314e+01 1.4168200617112179e+00 0 0 0
4203 1 2.5814110183726445e+01 1.4148160339582708e+01 2.8122154108539812e+00 0 0 0
4202 1 2.7226170571592260e+01 1.5622982818296366e+01 1.3421981379695176e+00 0 0 0
182 1 1.4610336106880508e+00 1.8686752730912104e+01 1.4502368062417290e+00 0 0 0
633 1 2.7932454618244780e+00 1.7233381360763776e+01 2.8254681994954329e+00 0 0 0
631 1 2.9339143184866576e+00 1.7287632806863172e+01 1.0261269069260237e-01 0 0 0
183 1 4.8249460497243042e-04 1.7132626851466302e+01 2.6875848479441480e+00 0 0 0
632 1 4.4992472345343728e+00 1.8590250750577244e+01 1.5144088003362504e+00 0 0 0
1083 1 5.8766043240451475e+00 1.7174358955259752e+01 2.8505372087145719e+00 0 0 0
1082 1 7.2552435700272762e+00 1.8486738286696109e+01 1.3346823664232785e+00 0 0 0
1533 1 8.7088110176089266e+00 1.7061610895432707e+01 2.8121526750372543e+00 0 0 0
1532 1 1.0106919573754334e+01 1.8553774219955173e+01 1.2785410650785625e+00 0 0 0
1983 1 1.1604765472244923e+01 1.7062278750428877e+01 2.8808823948468905e+00 0 0 0
1982 1 1.2912218220186654e+01 1.8515661780598599e+01 1.3914219609506544e+00 0 0 0
2433 1 1.4176952962110164e+01 1.6965786416886512e+01 2.7557402470245069e+00 0 0 0
2432 1 1.5657026044541416e+01 1.8441773263383475e+01 1.2005037529543643e+00 0 0 0
2882 1 1.8493925230924468e+01 1.8429426457748217e+01 1.2340029181480421e+00 0 0 0
2883 1 1.7249472388308792e+01 1.6994484203257375e+01 2.6861242071219977e+00 0 0 0
3333 1 1.9943063931816447e+01 1.7092289299873478e+01 2.7617813462124441e+00 0 0 0
3332 1 2.1426198498937556e+01 1.8490559042348842e+01 1.4218267267716145e+00 0 0 0
3331 1 1.9974294504149285e+01 1.7132737651528270e+01 4.1476925615526739e-03 0 0 0
3782 1 2.4447269164130166e+01 1.8587609931622090e+01 1.4042648140215697e+00 0 0 0
3783 1 2.2875383253641072e+01 1.7163554863819051e+01 2.7564352782709500e+00 0 0 0
3781 1 2.2930530554732655e+01 1.7158383848130242e+01 6.5936363618732230e-02 0 0 0
4232 1 2.7176340621992271e+01 1.8541886085480037e+01 1.4557729711261327e+00 0 0 0
4233 1 2.5671982557974950e+01 1.6940028525043211e+01 2.8964294925547267e+00 0 0 0
4231 1 2.5897002046288357e+01 1.7084633946839478e+01 4.8572219936311001e-02 0 0 0
212 1 1.4816557342111008e+00 2.1479123203552238e+01 1.2350679492075172e+00 0 0 0
663 1 2.9769915837232199e+00 2.0043780033176802e+01 2.9138464714578118e+00 0 0 0
693 1 2.9939067705957645e+00 2.2785896776101712e+01 2.8069973797918593e+00 0 0 0
213 1 7.0429781412186823e-02 2.0002140696325171e+01 2.8624916353110859e+00 0 0 0
243 1 2.4677640609874658e-02 2.2827586947326846e+01 2.6633514654900843e+00 0 0 0
662 1 4.3076415311177394e+00 2.1316153586305674e+01 1.4033893576448759e+00 0 0 0
1113 1 5.9292959875883122e+00 1.9910890222032403e+01 2.9266103630671276e+00 0 0 0
1143 1 5.8312097744073430e+00 2.2823519673254768e+01 2.8265055271368928e+00 0 0 0
1112 1 7.0844083064554955e+00 2.1346015973109992e+01 1.2603601477511581e+00 0 0 0
1563 1 8.7515382702155140e+00 1.9896021870025333e+01 2.7697872411146784e+00 0 0 0
1593 1 8.5996199537728426e+00 2.2844004137076485e+01 2.6746038322224197e+00 0 0 0
2013 1 1.1401914022890805e+01 1.9955856506658655e+01 2.6886428878776751e+00 0 0 0
1562 1 1.0030216615216503e+01 2.1502593364737749e+01 1.3381059883458375e+00 0 0 0
2043 1 1.1479847830068856e+01 2.2871260720531463e+01 2.6302565241767977e+00 0 0 0
2012 1 1.2844509625555068e+01 2.1374524645570393e+01 1.3052244385745564e+00 0 0 0
2463 1 1.4325230796322954e+01 1.9944661587117920e+01 2.7463274249145244e+00 0 0 0
2493 1 1.4520994384176850e+01 2.2816276050060505e+01 2.7382008768911583e+00 0 0 0
2462 1 1.5738940116324171e+01 2.1373892800444693e+01 1.2038636673205187e+00 0 0 0
2912 1 1.8697279485272301e+01 2.1396989711159016e+01 1.4358153116153454e+00 0 0 0
2913 1 1.7069880427596814e+01 1.9874318067109016e+01 2.6878715197481311e+00 0 0 0
2943 1 1.7101605937305653e+01 2.2701637095376128e+01 2.7226447563328682e+00 0 0 0
2941 1 1.7216260079622220e+01 2.2864866492500056e+01 1.1049146407692945e-02 0 0 0
3363 1 1.9881941306754452e+01 1.9866117789687024e+01 2.9033341003609316e+00 0 0 0
3362 1 2.1384803576727570e+01 2.1253534189191761e+01 1.3813708429708416e+00 0 0 0
3393 1 2.0026320862803860e+01 2.2815575909784609e+01 2.8872722209167341e+00 0 0 0
3812 1 2.4159971734820072e+01 2.1491677543729772e+01 1.4589285196396007e+00 0 0 0
3813 1 2.2862175838595061e+01 1.9952033976990570e+01 2.8015460561047401e+00 0 0 0
3843 1 2.2767939029777168e+01 2.2737619331308959e+01 3.0071064202565325e+00 0 0 0
3811 1 2.2765675230446750e+01 1.9888130430252620e+01 5.4125672330847863e-02 0 0 0
3841 1 2.2749601227599861e+01 2.2620337110894294e+01 3.4988555519660736e-02 0 0 0
4262 1 2.7058481987064081e+01 2.1431845462188708e+01 1.4347798143098012e+00 0 0 0
4263 1 2.5757326869305590e+01 2.0030421128652488e+01 2.8599310814835448e+00 0 0 0
4293 1 2.5619721596966915e+01 2.2808496643827990e+01 2.9057185134460570e+00 0 0 0
4741 1 2.8509288171103417e+01 2.2854983485361412e+01 1.9983425468320348e-01 0 0 0
4713 1 2.8425166599895210e+01 1.9889558593208630e+01 2.8423096242715049e+00 0 0 0
242 1 1.5494841479841064e+00 2.4151477962067837e+01 1.4063381579708056e+00 0 0 0
723 1 2.9054616715642450e+00 2.5637796003719441e+01 2.9211183125182449e+00 0 0 0
721 1 2.7937094101021791e+00 2.5674320710158561e+01 1.4303565326113661e-03 0 0 0
273 1 5.7802770551496963e-02 2.5535411737581146e+01 2.6806716322539392e+00 0 0 0
271 1 1.1844714631628506e-02 2.5574324573661819e+01 4.8257264440131564e-02 0 0 0
692 1 4.3311809479558105e+00 2.4188041273724661e+01 1.4476337658875027e+00 0 0 0
1173 1 5.5838508743029083e+00 2.5755381494400702e+01 2.7331252727499642e+00 0 0 0
1142 1 7.1718479570756619e+00 2.4313654983823973e+01 1.3947446331739448e+00 0 0 0
1623 1 8.6061754281651730e+00 2.5615110633422610e+01 2.7363055232850115e+00 0 0 0
1621 1 8.6391146709087767e+00 2.5752177088120561e+01 1.2360240066122685e-02 0 0 0
1592 1 1.0106481376715889e+01 2.4205295803391490e+01 1.1913992884363214e+00 0 0 0
2073 1 1.1482094598681435e+01 2.5593946561326245e+01 2.7334412989535903e+00 0 0 0
2042 1 1.2929593463579527e+01 2.4218444663700716e+01 1.2002239979594487e+00 0 0 0
2523 1 1.4312012967997521e+01 2.5640747090861726e+01 2.8397304580688871e+00 0 0 0
2492 1 1.5624625654877178e+01 2.4333275634842632e+01 1.2819128708823975e+00 0 0 0
2942 1 1.8552305865913066e+01 2.4230713373393929e+01 1.2557224276838801e+00 0 0 0
2973 1 1.7124167740055743e+01 2.5693732592841830e+01 2.7037871078764759e+00 0 0 0
3423 1 1.9852149882326369e+01 2.5713738358412822e+01 2.7722410286901584e+00 0 0 0
3392 1 2.1401208377239097e+01 2.4176174327494863e+01 1.4354915753984772e+00 0 0 0
3842 1 2.4160025609809157e+01 2.4234804911412123e+01 1.4312078084707456e+00 0 0 0
3873 1 2.2794328583128703e+01 2.5661585990730529e+01 2.8365351430763779e+00 0 0 0
4292 1 2.6974509668574289e+01 2.4083225600599935e+01 1.5247910372210451e+00 0 0 0
4323 1 2.5683351780829057e+01 2.5694011816700662e+01 2.9026955482674346e+00 0 0 0
4771 1 2.8388017647505134e+01 2.5574805426720555e+01 4.6349128522874228e-01 0 0 0
4321 1 2.5707349626113860e+01 2.5527890939526934e+01 7.8873312031447540e-02 0 0 0
303 1 1.8678954804670807e-02 2.8459063915881064e+01 2.8525914737125735e+00 0 0 0
272 1 1.5367265937895020e+00 2.7148751936516330e+01 1.3888688835587570e+00 0 0 0
753 1 2.8803125082010195e+00 2.8516299316283870e+01 2.6835579903910749e+00 0 0 0
722 1 4.2461342682503194e+00 2.7132617764692380e+01 1.3362798320491946e+00 0 0 0
1203 1 5.7663308772634734e+00 2.8360575723079869e+01 2.7997086730332388e+00 0 0 0
1172 1 7.1086589193668450e+00 2.6946504248043592e+01 1.3501068578007371e+00 0 0 0
1653 1 8.5024233168509546e+00 2.8534253583217190e+01 2.7790036300067280e+00 0 0 0
1622 1 1.0109489985186917e+01 2.7113638060976164e+01 1.4192900894825422e+00 0 0 0
2103 1 1.1486566784239155e+01 2.8435562262327689e+01 2.8299983987252300e+00 0 0 0
2072 1 1.2860760498892811e+01 2.7135084544874530e+01 1.3556295741712991e+00 0 0 0
2553 1 1.4342252329269421e+01 2.8470504379822692e+01 2.7324888993426533e+00 0 0 0
2522 1 1.5660665639502858e+01 2.7091255207684181e+01 1.2415366893860769e+00 0 0 0
2972 1 1.8504960584015940e+01 2.7091880540850497e+01 1.1854863414570889e+00 0 0 0
3003 1 1.7121286584063654e+01 2.8476899456391255e+01 2.6421716570230029e+00 0 0 0
3422 1 2.1365590292373561e+01 2.7139255091653780e+01 1.3653643337159893e+00 0 0 0
3453 1 1.9974249332611517e+01 2.8605516045061467e+01 2.8413627431371635e+00 0 0 0
3872 1 2.4236337582724101e+01 2.6974982462405880e+01 1.3950143310437897e+00 0 0 0
3903 1 2.2886294664167497e+01 2.8615518448632496e+01 2.8888745447559065e+00 0 0 0
3901 1 2.2931275105111691e+01 2.8434969455713070e+01 1.8425503792534670e-01 0 0 0
4322 1 2.7126955382668484e+01 2.7089960171461694e+01 1.5295178699455936e+00 0 0 0
4353 1 2.5682988597151567e+01 2.8376318283802544e+01 2.9616013109995207e+00 0 0 0
4351 1 2.5644266075844712e+01 2.8581821586384102e+01 3.7711038492659554e-02 0 0 0
302 1 1.4263544446508909e+00 2.9978174812669547e+01 1.3843793934382722e+00 0 0 0
783 1 2.9817497612675918e+00 3.1360685437205451e+01 2.7396497434122775e+00 0 0 0
332 1 1.3647641561956694e+00 3.2791712397890848e+01 1.2615301589154235e+00 0 0 0
752 1 4.2489301199303178e+00 2.9975186941770254e+01 1.3385497904392940e+00 0 0 0
1233 1 5.7911800393601869e+00 3.1199421497989817e+01 2.8254996626155462e+00 0 0 0
782 1 4.2634013372854618e+00 3.2721415875549766e+01 1.3089746556816362e+00 0 0 0
1202 1 7.1998539777912969e+00 2.9849479592344665e+01 1.4125722637960008e+00 0 0 0
1683 1 8.7139921352473806e+00 3.1329477714403776e+01 2.8758720191683551e+00 0 0 0
1232 1 7.1438817469621769e+00 3.2685005790548345e+01 1.4269213648085630e+00 0 0 0
1652 1 1.0026390323143554e+01 3.0069806248714574e+01 1.4744642479811680e+00 0 0 0
2133 1 1.1605765690305818e+01 3.1405472864512610e+01 2.8990246604370133e+00 0 0 0
1682 1 9.9138216428199311e+00 3.2746278440612869e+01 1.3405737854493067e+00 0 0 0
2132 1 1.2827296558434901e+01 3.2790608371174542e+01 1.3582520046410504e+00 0 0 0
2102 1 1.2839474227576325e+01 2.9831842687998286e+01 1.4916029007633920e+00 0 0 0
2583 1 1.4239423284556386e+01 3.1293060308006570e+01 2.6708216428779190e+00 0 0 0
2552 1 1.5802678766832134e+01 2.9928842285309262e+01 1.2958112654406495e+00 0 0 0
2582 1 1.5812949981561109e+01 3.2691384828740652e+01 1.2601636560190057e+00 0 0 0
3002 1 1.8681182551222829e+01 2.9936599640279145e+01 1.3250054759761916e+00 0 0 0
3032 1 1.8652883487153133e+01 3.2714137656664860e+01 1.3350891294280827e+00 0 0 0
3033 1 1.7119010613246697e+01 3.1304508541766268e+01 2.6796713145546307e+00 0 0 0
3452 1 2.1445116444722974e+01 2.9908996729002922e+01 1.3967636432649848e+00 0 0 0
3483 1 1.9907013491314924e+01 3.1371729128321352e+01 2.8446305168530399e+00 0 0 0
3482 1 2.1349985624783034e+01 3.2754587276237103e+01 1.3686393477915173e+00 0 0 0
3902 1 2.4415494074470285e+01 2.9978991602442029e+01 1.6063836451614673e+00 0 0 0
3933 1 2.2773338055658115e+01 3.1323542797256998e+01 2.7792356219078247e+00 0 0 0
3931 1 2.2833757034840840e+01 3.1303590527375686e+01 3.6283410501532387e-02 0 0 0
4352 1 2.7040220917262523e+01 2.9912442182659753e+01 1.4032493111866129e+00 0 0 0
4383 1 2.5692630910342793e+01 3.1377838299012470e+01 2.7871792209353816e+00 0 0 0
4382 1 2.6907432196655883e+01 3.2880215531429329e+01 1.3922511202529824e+00 0 0 0
4381 1 2.5609589678043079e+01 3.1443074469949572e+01 8.2652716324801645e-02 0 0 0
4833 1 2.8405110553454143e+01 3.1316558109239171e+01 2.7127434740499727e+00 0 0 0
813 1 2.9320199270913223e+00 3.4177808212365449e+01 2.7526338659073266e+00 0 0 0
362 1 1.4663954980100307e+00 3.5486956752400602e+01 1.3645670533319891e+00 0 0 0
1263 1 5.8373233201118868e+00 3.4068806841256077e+01 2.6773216882105535e+00 0 0 0
812 1 4.3607786695562138e+00 3.5567841371719155e+01 1.3983860239151251e+00 0 0 0
1261 1 5.7729469883105056e+00 3.4119119872694981e+01 4.0115965102089035e-02 0 0 0
1713 1 8.7012693388534164e+00 3.4131066929473519e+01 2.7754893580628441e+00 0 0 0
1262 1 7.0567591737047222e+00 3.5698036782951760e+01 1.3755556871178554e+00 0 0 0
2163 1 1.1564499184443369e+01 3.4083468190974315e+01 2.6255094266177257e+00 0 0 0
1712 1 1.0065080723525561e+01 3.5719426241776446e+01 1.3479679905891475e+00 0 0 0
2162 1 1.2860961189427893e+01 3.5636348333805046e+01 1.3386283796348379e+00 0 0 0
2613 1 1.4485545567740424e+01 3.4114240567565304e+01 2.6425860843320148e+00 0 0 0
2612 1 1.5720828389148750e+01 3.5685591054224332e+01 1.2084587757563499e+00 0 0 0
3063 1 1.7163446263598292e+01 3.4258004502015353e+01 2.6600300221004085e+00 0 0 0
3062 1 1.8546443132388045e+01 3.5644116059212877e+01 1.3401061817958870e+00 0 0 0
3513 1 2.0078129273640958e+01 3.4289111376314082e+01 2.7344496088337680e+00 0 0 0
3512 1 2.1339192821403280e+01 3.5761301691137916e+01 1.4507881274765917e+00 0 0 0
3932 1 2.4237846838137084e+01 3.2946624576187389e+01 1.4562506791667489e+00 0 0 0
3963 1 2.2801530515509565e+01 3.4307914872134475e+01 2.7802523747626871e+00 0 0 0
3962 1 2.4092536041656963e+01 3.5726551685230064e+01 1.3603043586463934e+00 0 0 0
4413 1 2.5761808252736344e+01 3.4462044080455257e+01 2.8363889274665981e+00 0 0 0
4412 1 2.7019838597543401e+01 3.5810110748914099e+01 1.4485552791380845e+00 0 0 0
4861 1 2.8485551638241922e+01 3.4380626563908450e+01 1.5000649095657081e-01 0 0 0
392 1 1.5295840049700102e+00 3.8365410131560878e+01 1.4704177098204601e+00 0 0 0
843 1 2.8871642082432269e+00 3.6926376042312128e+01 2.8156148376576091e+00 0 0 0
393 1 7.8355074323814944e-02 3.7003944173169359e+01 2.7680281859496656e+00 0 0 0
842 1 4.2445272360118471e+00 3.8499241245601041e+01 1.2852290709537217e+00 0 0 0
1293 1 5.6954846738390001e+00 3.7064354737605143e+01 2.7039575978681571e+00 0 0 0
1292 1 7.0381383395823383e+00 3.8414833038080815e+01 1.3055987638548849e+00 0 0 0
1743 1 8.5904028264256489e+00 3.7005257801516507e+01 2.7938125170309749e+00 0 0 0
1742 1 9.9959127088514119e+00 3.8283354534249057e+01 1.4549462044700507e+00 0 0 0
2193 1 1.1516437497507217e+01 3.7074735095870835e+01 2.8735154606923330e+00 0 0 0
2192 1 1.2918654557436454e+01 3.8553999711574775e+01 1.4601356104242114e+00 0 0 0
2643 1 1.4219290503684149e+01 3.7111877812950908e+01 2.8490210441009833e+00 0 0 0
2642 1 1.5739569705798539e+01 3.8458681218431508e+01 1.3022615358461720e+00 0 0 0
3092 1 1.8565431760891180e+01 3.8598361141231592e+01 1.3308112058187569e+00 0 0 0
3093 1 1.7121001780362995e+01 3.7086180554684873e+01 2.8688497399600177e+00 0 0 0
3543 1 1.9893873251647975e+01 3.7178261097095856e+01 2.8588537011689201e+00 0 0 0
3542 1 2.1518271418243888e+01 3.8613703340842036e+01 1.4034746042615198e+00 0 0 0
3992 1 2.4222668419597657e+01 3.8590229077206374e+01 1.3193850558003448e+00 0 0 0
3993 1 2.2775519309768839e+01 3.7200292668158738e+01 2.8018533610292775e+00 0 0 0
4442 1 2.7074737057664215e+01 3.8860121928941140e+01 1.3457197927807405e+00 0 0 0
4443 1 2.5646310463880589e+01 3.7214423155123342e+01 2.6793660090242368e+00 0 0 0
4891 1 2.8406149517783824e+01 3.7395961118956691e+01 7.2169782463049614e-02 0 0 0
4893 1 2.8538839064191752e+01 3.7304554108774767e+01 2.7890728915754504e+00 0 0 0
422 1 1.5604002305007723e+00 4.1328519736596007e+01 1.4395522734202002e+00 0 0 0
873 1 2.9033959349622096e+00 3.9800782799022457e+01 2.7551484013220988e+00 0 0 0
3 1 1.8071156727438725e-01 4.2745917946746161e+01 2.7117890592444365e+00 0 -1 0
421 1 1.3548405160712737e-01 3.9966750724798487e+01 5.3297239063105906e-02 0 0 0
423 1 2.6770108307325523e-02 3.9865274636664481e+01 2.7848725114984103e+00 0 0 0
903 1 5.6306809561604716e+00 4.2813980696494454e+01 2.8279235167636947e+00 0 -1 0
872 1 4.3199280193140890e+00 4.1350449970362277e+01 1.3490313241003158e+00 0 0 0
1323 1 5.7079528642881048e+00 3.9814897740576399e+01 2.8245082664988903e+00 0 0 0
1353 1 8.4434584590935291e+00 4.2767415302505739e+01 2.8759703109428991e+00 0 -1 0
1322 1 7.1194596585770373e+00 4.1301760169987091e+01 1.5952806249003990e+00 0 0 0
1773 1 8.6031306052121952e+00 3.9823608950919734e+01 2.7821690718653196e+00 0 0 0
1803 1 1.1509150130277158e+01 4.2691149742488435e+01 2.9055947387709518e+00 0 -1 0
1772 1 9.9906207748521716e+00 4.1316881475753362e+01 1.4776437417729780e+00 0 0 0
2223 1 1.1453925253934660e+01 4.0006046696105159e+01 2.8667384404218423e+00 0 0 0
2222 1 1.2893000530015019e+01 4.1395407307370959e+01 1.4171437212891576e+00 0 0 0
2673 1 1.4328756533474690e+01 3.9955911566661868e+01 2.8160186768579045e+00 0 0 0
2672 1 1.5587628567807343e+01 4.1406570072162893e+01 1.3941908470487092e+00 0 0 0
2671 1 1.4232616977794102e+01 4.0067428459387614e+01 7.8198794763508772e-03 0 0 0
3122 1 1.8523367844032808e+01 4.1434345058381979e+01 1.4301903102794549e+00 0 0 0
3123 1 1.7048084213069163e+01 3.9977122068111314e+01 2.8238060886315619e+00 0 0 0
3573 1 1.9984897248946456e+01 3.9897749921479658e+01 2.8165373881630376e+00 0 0 0
3572 1 2.1342833097660041e+01 4.1428162204887869e+01 1.5071966145946400e+00 0 0 0
4021 1 2.2848255519963555e+01 4.0127985645203822e+01 1.0395652159793656e-02 0 0 0
3601 1 2.2876084235754288e+01 4.2769439606515945e+01 9.2558058944582910e-02 0 -1 0
3603 1 2.2815115436145259e+01 4.2771442535157306e+01 2.9118324689011392e+00 0 -1 0
4022 1 2.4375446053398306e+01 4.1546994307085981e+01 1.4396416362614226e+00 0 0 0
4023 1 2.2895374849375401e+01 4.0065611113489609e+01 2.8665600658979398e+00 0 0 0
4471 1 2.5613818623776275e+01 4.0014157052702259e+01 3.8663139879623998e-02 0 0 0
4053 1 2.5677246290620861e+01 4.2826688739755852e+01 2.9954741661573001e+00 0 -1 0
4472 1 2.7052149981513171e+01 4.1346216688505194e+01 1.3603618526902088e+00 0 0 0
4473 1 2.5514326560516544e+01 4.0158788450401133e+01 2.8436036463767085e+00 0 0 0
4503 1 2.8417084310238295e+01 4.2679833375144767e+01 2.9282758268927864e+00 0 -1 0
4921 1 2.8446291427749429e+01 4.0098115466348290e+01 2.3655741342473391e-02 0 0 0
4923 1 2.8511959845660538e+01 4.0039015252766333e+01 2.9369551587059095e+00 0 0 0
4 1 1.4521052181222196e+00 1.4706185578704520e+00 4.3307628771239353e+00 0 0 0
485 1 2.9160885403417232e+00 2.8294101253952144e+00 5.7718776739129218e+00 0 0 0
454 1 4.3320898525730556e+00 1.4704035241287987e+00 4.2965022140728006e+00 0 0 0
935 1 5.5766750301511019e+00 2.8149224731914937e+00 5.7224016996288496e+00 0 0 0
904 1 7.0967780789639452e+00 1.2913473662053641e+00 4.1437495758251863e+00 0 0 0
1385 1 8.5433537701420388e+00 2.7505573803119558e+00 5.5708368619144295e+00 0 0 0
1354 1 9.9422515310411548e+00 1.3718087745238727e+00 4.1373786467026985e+00 0 0 0
1835 1 1.1491046803565483e+01 2.9057735907511533e+00 5.6574551819643322e+00 0 0 0
1804 1 1.2858011649629146e+01 1.4275803381495566e+00 4.2244799462778140e+00 0 0 0
2285 1 1.4339900353504442e+01 2.8635829389539782e+00 5.7248752749999605e+00 0 0 0
2254 1 1.5731718309208889e+01 1.4534736924628469e+00 4.2909921920911813e+00 0 0 0
2255 1 1.4251268183939587e+01 1.4495317783119280e-01 5.7307896451202627e+00 0 0 0
2704 1 1.8568988520509635e+01 1.5413764414349640e+00 4.3095124010266188e+00 0 0 0
2735 1 1.7148343228192399e+01 2.8703220122162132e+00 5.6455303775745120e+00 0 0 0
3185 1 2.0091187102616864e+01 2.8232899531864883e+00 5.7062123311614235e+00 0 0 0
3154 1 2.1423143862312344e+01 1.4390963964219652e+00 4.3206292620082536e+00 0 0 0