LAMMPS data file via write_data, version 7 Aug 2019, timestep = 29000

9000 atoms
1 atom types

-1.2454929418246455e-04 5.7106124549294186e+01 xlo xhi
-9.3411970636848420e-05 4.2829593411970642e+01 ylo yhi
-9.3411970636848420e-05 4.2829593411970642e+01 zlo zhi

Masses

1 56

Atoms # atomic

2 1 1.5514090399415852e+00 1.2375493039170737e+00 1.3124912296367535e+00 0 0 0
483 1 2.8703598910190582e+00 2.7995478194243506e+00 2.8020408527989744e+00 0 0 0
33 1 1.2373713240186945e-01 2.6576807153404736e+00 2.7622962573007950e+00 0 0 0
452 1 4.4071467797211215e+00 1.2650065375854247e+00 1.2780763920513205e+00 0 0 0
933 1 5.6504993541778790e+00 2.7328598340041190e+00 2.7452071419466026e+00 0 0 0
903 1 5.8191319751201638e+00 4.0809429453879886e-02 2.7894252090770100e+00 0 0 0
902 1 7.1339537985098618e+00 1.2677328313917009e+00 1.3266051918169728e+00 0 0 0
1383 1 8.5847410746634658e+00 2.7498149160460312e+00 2.7012345470016954e+00 0 0 0
1353 1 8.6489373637073133e+00 1.8409125194415757e-01 2.9150241187974322e+00 0 0 0
1352 1 1.0029551750397536e+01 1.2854227963226732e+00 1.1240462278306711e+00 0 0 0
1833 1 1.1336198473157170e+01 2.6491273338274848e+00 2.7242278807760525e+00 0 0 0
1803 1 1.1623686766588936e+01 1.0559883412703641e-02 2.6333690929047364e+00 0 0 0
1802 1 1.2806392360035479e+01 1.3432675872407165e+00 1.2099489465590494e+00 0 0 0
2283 1 1.4373169509509014e+01 2.8821894754870256e+00 2.6980063011108593e+00 0 0 0
2252 1 1.5720005934725195e+01 1.2479225864007812e+00 1.4746479971914586e+00 0 0 0
2702 1 1.8611160323849688e+01 1.4796384640890099e+00 1.2249774119908678e+00 0 0 0
2733 1 1.7234871797872760e+01 2.7775119368226826e+00 2.8098883178550982e+00 0 0 0
3183 1 2.0098599832216582e+01 2.7677432656076157e+00 2.7189214415322627e+00 0 0 0
3152 1 2.1592089474511468e+01 1.3680657082850403e+00 1.2570669227175750e+00 0 0 0
3153 1 2.0130242389676457e+01 5.7724246600278613e-03 2.8777674272348674e+00 0 0 0
3602 1 2.4282452881349300e+01 1.5203353521991672e+00 1.3670333572955238e+00 0 0 0
3633 1 2.2831685126150852e+01 2.8455144486967097e+00 2.8696622177861291e+00 0 0 0
3603 1 2.2905276853586198e+01 1.3805259426252547e-01 2.7208060266530785e+00 0 0 0
4052 1 2.7173907110337503e+01 1.5083563007952767e+00 1.4024512851012312e+00 0 0 0
4083 1 2.5798231138471795e+01 2.8217276137740352e+00 2.7883637838664508e+00 0 0 0
4053 1 2.5674008100276968e+01 7.4994648113343956e-02 2.7211990895935583e+00 0 0 0
4501 1 2.8493511540357719e+01 6.0881571202321100e-02 7.0038054934180138e-02 0 0 0
32 1 1.4542805133993719e+00 4.1342678943804456e+00 1.2932009069909502e+00 0 0 0
513 1 2.8893463231988434e+00 5.6236374871440979e+00 2.6964000085967141e+00 0 0 0
482 1 4.3937150615003899e+00 4.1180812933820068e+00 1.2968008060052136e+00 0 0 0
963 1 5.7942818569452799e+00 5.5499621200836264e+00 2.5910928622831833e+00 0 0 0
932 1 7.2769802018742862e+00 4.0423617194683636e+00 1.2203818693097173e+00 0 0 0
1413 1 8.5782666526309352e+00 5.5095636983497238e+00 2.7369468037862910e+00 0 0 0
1382 1 1.0009024184811571e+01 4.0725376159539115e+00 1.3471808857035894e+00 0 0 0
1863 1 1.1505095281361141e+01 5.5046406334486253e+00 2.6948587785000511e+00 0 0 0
1832 1 1.2988259121835396e+01 4.0885882478465767e+00 1.3129784441605084e+00 0 0 0
2313 1 1.4276810236686838e+01 5.6508106529959310e+00 2.7480539583073935e+00 0 0 0
2282 1 1.5855663973779299e+01 4.1280385855872934e+00 1.3821167285983804e+00 0 0 0
2732 1 1.8773404050490853e+01 4.1542275042994854e+00 1.3954225616293083e+00 0 0 0
2763 1 1.7325573041234762e+01 5.5596822500942471e+00 2.7297980038948060e+00 0 0 0
3213 1 2.0057598374669993e+01 5.7599854578035359e+00 2.7165194941403130e+00 0 0 0
3182 1 2.1539272463556799e+01 4.1742492337445638e+00 1.3320541471295413e+00 0 0 0
3632 1 2.4286643534242543e+01 4.2102196912332870e+00 1.4558685818785342e+00 0 0 0
3663 1 2.2932116444925750e+01 5.6258668838039272e+00 2.8989418571562218e+00 0 0 0
4082 1 2.7164113771898062e+01 4.3840545195976235e+00 1.4140084694746755e+00 0 0 0
4113 1 2.5770587020865751e+01 5.6068221284855388e+00 2.8863827880729089e+00 0 0 0
62 1 1.4736308749882965e+00 7.0376586671870998e+00 1.2678957391266927e+00 0 0 0
543 1 2.9979533438311661e+00 8.3071316244302658e+00 2.7165562467046880e+00 0 0 0
92 1 1.4524843199896229e+00 9.8691585567205635e+00 1.2467070931586581e+00 0 0 0
512 1 4.4610778968591402e+00 6.9974709103318435e+00 1.3300993094178641e+00 0 0 0
993 1 5.8027141193332286e+00 8.5450416670793121e+00 2.6553617477118951e+00 0 0 0
542 1 4.2680164742634794e+00 9.8116312248933291e+00 1.3404699869340926e+00 0 0 0
962 1 7.1051963151405282e+00 6.9313124793478158e+00 1.3167597265498117e+00 0 0 0
1443 1 8.5886996009426415e+00 8.5444252252979709e+00 2.6887211741160968e+00 0 0 0
1412 1 1.0076381219780167e+01 7.1060693099137504e+00 1.3843143829902225e+00 0 0 0
1893 1 1.1365507658688681e+01 8.4874106796743636e+00 2.8794803433045106e+00 0 0 0
1442 1 1.0064097808528519e+01 9.8530524156669728e+00 1.4471612821057891e+00 0 0 0
1891 1 1.1484899892580794e+01 8.3769292508759925e+00 2.0955250365226163e-02 0 0 0
1862 1 1.2856267274909085e+01 7.1140523584334909e+00 1.4129280033994651e+00 0 0 0
2343 1 1.4359715608601780e+01 8.4938989512778544e+00 2.6954218458270747e+00 0 0 0
2312 1 1.5744529203935745e+01 7.1237686246425467e+00 1.2060292475359187e+00 0 0 0
2762 1 1.8664388389216736e+01 7.0344575600895478e+00 1.2389873486115546e+00 0 0 0
2793 1 1.7270250749762418e+01 8.3657447325341661e+00 2.6671373847430200e+00 0 0 0
3212 1 2.1398332905282928e+01 7.1377293081004929e+00 1.3723401040758518e+00 0 0 0
3243 1 2.0061773159547549e+01 8.4919053499954718e+00 2.7044373247212330e+00 0 0 0
3662 1 2.4362446790002821e+01 6.9485461212012778e+00 1.4128514566893930e+00 0 0 0
3693 1 2.2859196216929714e+01 8.4859892727740824e+00 2.8464960872829761e+00 0 0 0
3692 1 2.4287822036644016e+01 9.7939645815640706e+00 1.2498553292284769e+00 0 0 0
4112 1 2.7283763407179840e+01 7.0911584784322752e+00 1.3299977023410625e+00 0 0 0
4143 1 2.5859552583755416e+01 8.4518722885653847e+00 2.6863893672741845e+00 0 0 0
4593 1 2.8535839723167161e+01 8.4730641678626277e+00 2.8540906780747228e+00 0 0 0
573 1 2.9563227140341821e+00 1.1295804330443346e+01 2.6416958229849326e+00 0 0 0
122 1 1.4464254206774476e+00 1.2707145949213336e+01 1.2836615660194126e+00 0 0 0
123 1 6.9661805183532516e-03 1.1245105090617011e+01 2.8061782743680501e+00 0 0 0
1023 1 5.7959183027459753e+00 1.1277522040235317e+01 2.7064732252088701e+00 0 0 0
572 1 4.4718015804333753e+00 1.2825582625182713e+01 1.2537193510728004e+00 0 0 0
992 1 7.1926966466324060e+00 9.9126644520761715e+00 1.2449956043105654e+00 0 0 0
1022 1 7.2722440751758066e+00 1.2782206120249754e+01 1.3601862601989865e+00 0 0 0
1473 1 8.5453349591778132e+00 1.1214345776910188e+01 2.7533789446383832e+00 0 0 0
1923 1 1.1472038945720852e+01 1.1396803164116832e+01 2.7873103619747011e+00 0 0 0
1472 1 1.0048249157744774e+01 1.2676338738655499e+01 1.4010445343301343e+00 0 0 0
1892 1 1.2982170620242620e+01 9.9926562743208915e+00 1.2535364431016982e+00 0 0 0
2791 1 1.5818219035401178e+01 9.9271087887454037e+00 1.4086910265387733e+00 0 0 0
1922 1 1.2924551297376853e+01 1.2688042800800654e+01 1.3143516585050048e+00 0 0 0
2342 1 1.4466321552977190e+01 1.1496347645356160e+01 2.7911137540894155e+00 0 0 0
2792 1 1.8672718448193908e+01 9.9984813173388751e+00 1.4146001969746653e+00 0 0 0
2372 1 1.5915012715792242e+01 1.2696298549989274e+01 1.3004487303249992e+00 0 0 0
2823 1 1.7278488164598699e+01 1.1203174243323289e+01 2.7825085097952877e+00 0 0 0
2822 1 1.8762975691357365e+01 1.2845017218281244e+01 1.3857748455528149e+00 0 0 0
3242 1 2.1451015690546345e+01 9.9013700571128869e+00 1.4366477237433242e+00 0 0 0
3273 1 2.0170843111065221e+01 1.1441791246200097e+01 2.8554246294446952e+00 0 0 0
3272 1 2.1600394893021178e+01 1.2761518752891565e+01 1.3499738503920626e+00 0 0 0
3723 1 2.2951883658299824e+01 1.1264261326433967e+01 2.6833665581513531e+00 0 0 0
3722 1 2.4457826418370285e+01 1.2778667714532416e+01 1.4222616444398266e+00 0 0 0
3721 1 2.2845225479854030e+01 1.1363544869543370e+01 4.7888747116999753e-03 0 0 0
4142 1 2.7133665491687470e+01 9.9420291032735832e+00 1.3530538446176026e+00 0 0 0
4173 1 2.5853360463166446e+01 1.1442561404128375e+01 2.9149642794214619e+00 0 0 0
4172 1 2.7239631634016511e+01 1.2898494831351135e+01 1.2540631057189908e+00 0 0 0
4171 1 2.5730015398676862e+01 1.1448380627607987e+01 5.1189685860812517e-02 0 0 0
4623 1 2.8418944035741973e+01 1.1396093138751851e+01 2.7622180695366749e+00 0 0 0
603 1 2.9465609564571502e+00 1.4197148490629475e+01 2.7445104542442844e+00 0 0 0
152 1 1.4547993801213630e+00 1.5512797927876159e+01 1.3384150411638600e+00 0 0 0
153 1 1.6641232092348937e-01 1.3975953282762553e+01 2.7738591185261843e+00 0 0 0
1053 1 5.7663400679462562e+00 1.4188001495081135e+01 2.9334850721067034e+00 0 0 0
602 1 4.4057055784846604e+00 1.5623269375880794e+01 1.4764697069776682e+00 0 0 0
1503 1 8.7780663658226992e+00 1.4283390443530424e+01 2.8776473177935964e+00 0 0 0
1052 1 7.2268616439535860e+00 1.5663977527539403e+01 1.4181880840848842e+00 0 0 0
1953 1 1.1375754230106269e+01 1.4134311590250773e+01 2.7626744670555801e+00 0 0 0
1502 1 1.0053804654040416e+01 1.5827503903347154e+01 1.3073648099650377e+00 0 0 0
1952 1 1.2948186138351220e+01 1.5660325057934472e+01 1.5147189263462446e+00 0 0 0
2403 1 1.4442857518213939e+01 1.4187031796679944e+01 2.6115685663840478e+00 0 0 0
2402 1 1.5886344435451731e+01 1.5615112160493469e+01 1.4341759296206551e+00 0 0 0
2853 1 1.7242156208345666e+01 1.4152559316430739e+01 2.7208280760452466e+00 0 0 0
2852 1 1.8824260771949582e+01 1.5609127618447246e+01 1.4229934219780771e+00 0 0 0
3303 1 2.0204695479153422e+01 1.4322629905640124e+01 2.8066102964554571e+00 0 0 0
3302 1 2.1489662879528741e+01 1.5689782159823954e+01 1.3893874057488025e+00 0 0 0
3753 1 2.2988674732636106e+01 1.4196143070452395e+01 2.7317715983377666e+00 0 0 0
3752 1 2.4262870495562826e+01 1.5704128486083128e+01 1.3498741772029832e+00 0 0 0
4203 1 2.5615192478374659e+01 1.4293204703984790e+01 2.7500421103657913e+00 0 0 0
4202 1 2.7182646194716192e+01 1.5589007413119221e+01 1.3148814488762803e+00 0 0 0
182 1 1.6753243660357700e+00 1.8554623541329871e+01 1.3586920532893465e+00 0 0 0
633 1 2.9073249104972834e+00 1.7019413749904931e+01 2.7862218415487066e+00 0 0 0
183 1 5.4388543246142312e-02 1.7115523740851575e+01 2.8668460061003946e+00 0 0 0
632 1 4.3289199077531517e+00 1.8553184043799988e+01 1.2983353562173610e+00 0 0 0
1083 1 5.8005986654953148e+00 1.7034135257476652e+01 2.8516544716673935e+00 0 0 0
1082 1 7.2453251086719046e+00 1.8450457783588156e+01 1.3136232420530156e+00 0 0 0
1533 1 8.5988431043802542e+00 1.7161012147712785e+01 2.8534815829578100e+00 0 0 0
1532 1 1.0153065307196005e+01 1.8487450639826115e+01 1.3159132566301364e+00 0 0 0
1983 1 1.1558826884452875e+01 1.7021687864649259e+01 2.7788046968566240e+00 0 0 0
1982 1 1.2845456270783274e+01 1.8474461948697954e+01 1.4300155837525610e+00 0 0 0
2433 1 1.4313705053850029e+01 1.7130185037893831e+01 2.9376396833334177e+00 0 0 0
2432 1 1.5690940821155449e+01 1.8546677820176441e+01 1.3337303713732909e+00 0 0 0
2882 1 1.8509571548206697e+01 1.8600669356653889e+01 1.4426837605918896e+00 0 0 0
2883 1 1.7208947436402262e+01 1.7098892701844207e+01 2.7301462835330841e+00 0 0 0
2881 1 1.7264668887053727e+01 1.7077943791859653e+01 8.0163902575595997e-02 0 0 0
3333 1 1.9980858737478950e+01 1.7087437605296536e+01 2.7476096676009654e+00 0 0 0
3332 1 2.1363136253711527e+01 1.8528999178808260e+01 1.4075129152123802e+00 0 0 0
3782 1 2.4132474839925074e+01 1.8573487847237121e+01 1.3181887525409701e+00 0 0 0
3783 1 2.2817942596556421e+01 1.7088968904458433e+01 2.9244505373163352e+00 0 0 0
3781 1 2.2792624392285170e+01 1.7057579418429594e+01 4.9318206216774740e-02 0 0 0
4232 1 2.7070723597649810e+01 1.8440192834006957e+01 1.3361984453352971e+00 0 0 0
4233 1 2.5557751521191832e+01 1.7064326057415514e+01 2.8254045627887239e+00 0 0 0
4683 1 2.8500087309387709e+01 1.7061473045438365e+01 2.6129270245666749e+00 0 0 0
212 1 1.6286935852159736e+00 2.1469650181661567e+01 1.4016906384555994e+00 0 0 0
663 1 3.0727477892819888e+00 2.0060394970234256e+01 2.7943249644710328e+00 0 0 0
693 1 3.1007690012250788e+00 2.2961186844490982e+01 2.7726252927159387e+00 0 0 0
661 1 3.0200385043936615e+00 2.0006430813474559e+01 5.0731466201909825e-03 0 0 0
241 1 2.7639536741383992e-02 2.2981109746396047e+01 1.6262198823042695e-02 0 0 0
213 1 6.3324138108143649e-02 1.9948776016189925e+01 2.7206236932104955e+00 0 0 0
243 1 3.1909149807610504e-02 2.2909824069248984e+01 2.8337727096921137e+00 0 0 0
662 1 4.4646766238154605e+00 2.1440320467300410e+01 1.2521744390910541e+00 0 0 0
1113 1 5.7159052466417446e+00 1.9867592680285028e+01 2.7712237042379497e+00 0 0 0
1143 1 5.7678106383014249e+00 2.2932285499543482e+01 2.7151582197822819e+00 0 0 0
1563 1 8.6893856395709719e+00 1.9869830640520210e+01 2.7747510523617569e+00 0 0 0
1112 1 7.1510386028320809e+00 2.1326372821897120e+01 1.3513655453200581e+00 0 0 0
1593 1 8.6517996256755243e+00 2.2843905246550797e+01 2.7716629011873106e+00 0 0 0
2013 1 1.1531230482830688e+01 1.9933229946710025e+01 2.8233361541338522e+00 0 0 0
1562 1 1.0005508998969157e+01 2.1307192399988050e+01 1.3270133045318351e+00 0 0 0
2043 1 1.1454096076109453e+01 2.2675131122160202e+01 2.8063972046153967e+00 0 0 0
2012 1 1.2653166334062039e+01 2.1344140164858167e+01 1.3124425853964767e+00 0 0 0
2463 1 1.4378772514858392e+01 2.0053320395218698e+01 2.7660010666095509e+00 0 0 0
2493 1 1.4175165854190393e+01 2.2841711569478015e+01 2.7444986714431385e+00 0 0 0
2491 1 1.4290865853523238e+01 2.2775777071625136e+01 6.9543647610011305e-02 0 0 0
2462 1 1.5751400650086673e+01 2.1477813740139649e+01 1.4308320244773052e+00 0 0 0
2461 1 1.4162229417521980e+01 1.9969249356905241e+01 7.1348507785277848e-02 0 0 0
2912 1 1.8473065398764160e+01 2.1500630401018579e+01 1.5334953825944351e+00 0 0 0
2913 1 1.7204637408149175e+01 2.0157150038873393e+01 2.9209647447121614e+00 0 0 0
2943 1 1.7206468171546817e+01 2.2935043890095798e+01 2.7965170761343470e+00 0 0 0
2911 1 1.7132592129506783e+01 2.0058525880654393e+01 2.8658640856779882e-02 0 0 0
3363 1 1.9982702563683919e+01 1.9926237391313983e+01 2.8495712196187069e+00 0 0 0
3393 1 1.9824255240472983e+01 2.2838162463219302e+01 3.0200416113615081e+00 0 0 0
3362 1 2.1301103929894857e+01 2.1377733641124088e+01 1.5238470094836754e+00 0 0 0
3391 1 2.0070886195806938e+01 2.2860018158956787e+01 3.1972629101872485e-02 0 0 0
3361 1 2.0010859025260412e+01 1.9977059991831904e+01 7.9584848405666264e-02 0 0 0
3812 1 2.4195332634505608e+01 2.1431132350775307e+01 1.4744818323204829e+00 0 0 0
3813 1 2.2780317227145424e+01 1.9977054641914410e+01 2.8943646860615622e+00 0 0 0
3843 1 2.2873429863745915e+01 2.2870216867459995e+01 2.8809160627296984e+00 0 0 0
4262 1 2.7137246585664951e+01 2.1348235854064946e+01 1.2928135541639170e+00 0 0 0
4263 1 2.5621692699152689e+01 2.0065910777614935e+01 2.7614078423844353e+00 0 0 0
4293 1 2.5661570606152114e+01 2.2893139449875157e+01 2.8950107204832540e+00 0 0 0
4291 1 2.5508134289635834e+01 2.2895575793098633e+01 1.0552313170438221e-01 0 0 0
4741 1 2.8522638786699410e+01 2.2846349109275241e+01 2.7302518416371477e-02 0 0 0
4713 1 2.8511939382856486e+01 1.9986658462623389e+01 2.8511010257319120e+00 0 0 0
242 1 1.4607625135813969e+00 2.4325302224059470e+01 1.2679503718081779e+00 0 0 0
723 1 2.9269557193952958e+00 2.5841041315843125e+01 2.8288720262165832e+00 0 0 0
273 1 5.1697519033107153e-02 2.5648136877500175e+01 2.8014402239876324e+00 0 0 0
692 1 4.4251697055308412e+00 2.4459726274740778e+01 1.3283239913443075e+00 0 0 0
1173 1 5.8251401774262117e+00 2.5764101772319801e+01 2.7072222299844868e+00 0 0 0
1142 1 7.3315929609431256e+00 2.4292175556134946e+01 1.3682347384945146e+00 0 0 0
1623 1 8.7121821509601567e+00 2.5726177853297067e+01 2.6398334309614131e+00 0 0 0
1592 1 1.0287157454066657e+01 2.4268377143100519e+01 1.3780742544060764e+00 0 0 0
2073 1 1.1611821407804987e+01 2.5866514334216440e+01 2.8171846984581861e+00 0 0 0
2071 1 1.1500097103294996e+01 2.5816710251363922e+01 2.4963852120691854e-03 0 0 0
2042 1 1.2910622972684958e+01 2.4355328239900476e+01 1.4275141981397883e+00 0 0 0
2523 1 1.4398769969234987e+01 2.5826425347832654e+01 2.8789103422107876e+00 0 0 0
2492 1 1.5720737400241536e+01 2.4474477470500876e+01 1.3921062434451850e+00 0 0 0
2942 1 1.8671337326345263e+01 2.4365440629090589e+01 1.4290880423486958e+00 0 0 0
2973 1 1.7253178349766674e+01 2.5726071847442462e+01 2.8177745347587457e+00 0 0 0
3423 1 1.9999636545876967e+01 2.5838685255183151e+01 2.7933695852179476e+00 0 0 0
3392 1 2.1430623281501706e+01 2.4420506867196323e+01 1.3809231330400102e+00 0 0 0
3842 1 2.4193656941709918e+01 2.4317598726732253e+01 1.5379025495164029e+00 0 0 0
3873 1 2.2779545772209179e+01 2.5706032991922864e+01 2.8955301939904392e+00 0 0 0
4292 1 2.7010289186093601e+01 2.4327570829437906e+01 1.4931383055282244e+00 0 0 0
4323 1 2.5702273145091752e+01 2.5846796446375947e+01 2.7962843197438265e+00 0 0 0
4321 1 2.5613243528735392e+01 2.5711450032509376e+01 4.5235073822865957e-02 0 0 0
4771 1 2.8524063771469358e+01 2.5614195787747740e+01 7.3856575407162950e-03 0 0 0
272 1 1.4845832991581143e+00 2.7227053969240529e+01 1.3678233435882088e+00 0 0 0
753 1 2.9118867331448577e+00 2.8508612108772258e+01 2.8825792768877481e+00 0 0 0
303 1 7.5596401799458757e-02 2.8633995626139665e+01 2.8410244817649293e+00 0 0 0
722 1 4.3283182646180620e+00 2.7226750764453644e+01 1.3150378409619421e+00 0 0 0
1203 1 5.7314867593684866e+00 2.8761825532972406e+01 2.6802798254733848e+00 0 0 0
1172 1 7.2423684069331857e+00 2.7202676328238429e+01 1.2981953656719767e+00 0 0 0
1653 1 8.6992227046430735e+00 2.8641702383369392e+01 2.7785197555039964e+00 0 0 0
1622 1 1.0155891835395115e+01 2.7175133862127101e+01 1.2591310012637480e+00 0 0 0
2103 1 1.1540913437649499e+01 2.8698941306578813e+01 2.9968688790273301e+00 0 0 0
2072 1 1.2932342878408695e+01 2.7349581130358093e+01 1.2394555526065505e+00 0 0 0
2553 1 1.4418726021161589e+01 2.8541956216943223e+01 2.8080043387489959e+00 0 0 0
2522 1 1.5637126859165599e+01 2.7170672276897495e+01 1.3397139720921130e+00 0 0 0
2972 1 1.8614972034342944e+01 2.7225860826136845e+01 1.4011536013106034e+00 0 0 0
3003 1 1.7213925033552982e+01 2.8559570917866683e+01 2.7062152532400492e+00 0 0 0
3001 1 1.7242152629655713e+01 2.8680218241790744e+01 7.2136351055479178e-02 0 0 0
3422 1 2.1560688837746270e+01 2.7192219919533219e+01 1.2714989178917413e+00 0 0 0
3453 1 2.0185031944569264e+01 2.8567109608735752e+01 2.8125614739740343e+00 0 0 0
3451 1 2.0079604940321918e+01 2.8641851492131778e+01 1.0958332707673435e-03 0 0 0
3872 1 2.4173007844010147e+01 2.7176874405950311e+01 1.3530613735710999e+00 0 0 0
3903 1 2.2937494312402229e+01 2.8584664197163033e+01 2.8229648137549641e+00 0 0 0
3901 1 2.2891760650196225e+01 2.8719205632869105e+01 4.9694604916176388e-02 0 0 0
4322 1 2.7089362927687915e+01 2.7217866075941924e+01 1.4997221304525568e+00 0 0 0
4353 1 2.5647255080157027e+01 2.8670594726808709e+01 2.8926986320738592e+00 0 0 0
4351 1 2.5681033392782908e+01 2.8540414566147234e+01 9.6022483907512845e-03 0 0 0
4801 1 2.8511123212358211e+01 2.8636298043423892e+01 4.9831580699638778e-02 0 0 0
4803 1 2.8462267194238613e+01 2.8572105640301505e+01 2.8768849804329664e+00 0 0 0
302 1 1.5641668161619684e+00 3.0163456041811866e+01 1.3830286016446243e+00 0 0 0
783 1 2.8799548683493539e+00 3.1619915780618474e+01 2.9283876437254546e+00 0 0 0
333 1 8.3145115483777704e-02 3.1509490349682199e+01 2.8035393321777984e+00 0 0 0
752 1 4.3232742816511269e+00 3.0064357951863947e+01 1.1823063165825376e+00 0 0 0
1233 1 5.8148725182659700e+00 3.1404315393282747e+01 2.7227525404846955e+00 0 0 0
782 1 4.3863572717820229e+00 3.2862150766682660e+01 1.5204832410272464e+00 0 0 0
1202 1 7.2914067805098135e+00 3.0050452933397683e+01 1.4107307487317098e+00 0 0 0
1683 1 8.7089696471785594e+00 3.1607427486801999e+01 2.7695452924085999e+00 0 0 0
1232 1 7.2923806646020175e+00 3.2898993592330314e+01 1.2586646301101418e+00 0 0 0
1652 1 1.0146334067358055e+01 3.0047125104567858e+01 1.3400561397019364e+00 0 0 0
2133 1 1.1562196477848103e+01 3.1418567792515098e+01 2.8049310841341724e+00 0 0 0
2132 1 1.2977266686879741e+01 3.2803756983100584e+01 1.3500681756729116e+00 0 0 0
2102 1 1.2951095368439487e+01 2.9985326560950323e+01 1.2364195049452955e+00 0 0 0
2583 1 1.4456420537570750e+01 3.1530640184411709e+01 2.7112083176369857e+00 0 0 0
2552 1 1.5799322753193136e+01 3.0233208778870548e+01 1.3540668869507642e+00 0 0 0
3002 1 1.8663472742990436e+01 3.0134040140833495e+01 1.4472996960297109e+00 0 0 0
3033 1 1.7167050058781285e+01 3.1408970088811753e+01 2.8705053171170225e+00 0 0 0
3032 1 1.8648247952334330e+01 3.2818903362769561e+01 1.4157560124021238e+00 0 0 0
2582 1 1.5879870112089353e+01 3.2892564400326989e+01 1.2970884615483171e+00 0 0 0
3452 1 2.1419713705289865e+01 2.9942200941455230e+01 1.4655567109586780e+00 0 0 0
3483 1 2.0116893927332175e+01 3.1516317020359995e+01 2.8399763829069671e+00 0 0 0
3482 1 2.1506818041558102e+01 3.2850012620521511e+01 1.5323246344281052e+00 0 0 0
3481 1 2.0146845215330671e+01 3.1486545619438896e+01 1.4229833363608616e-02 0 0 0
3902 1 2.4261188214384521e+01 2.9966036766320684e+01 1.5134240046860898e+00 0 0 0
3933 1 2.3082785914032506e+01 3.1564894978020988e+01 2.9263726813405810e+00 0 0 0
3932 1 2.4306315929480530e+01 3.2838927095306801e+01 1.4043948581145365e+00 0 0 0
3931 1 2.2942019586662816e+01 3.1510849717239132e+01 4.9607227986328785e-03 0 0 0
4352 1 2.7017521524652000e+01 2.9988422594622186e+01 1.4522880827388811e+00 0 0 0
4383 1 2.5633499527856387e+01 3.1452524140266721e+01 2.7930918533686548e+00 0 0 0
4381 1 2.5549064157487049e+01 3.1448492601763984e+01 3.0703186074616518e-02 0 0 0
4382 1 2.7193909236438223e+01 3.2872567406114442e+01 1.4012591749052137e+00 0 0 0
332 1 1.5552587364340176e+00 3.3011657506407730e+01 1.3921623529553275e+00 0 0 0
813 1 3.0200566084733249e+00 3.4242258473620993e+01 2.8681714607022979e+00 0 0 0
362 1 1.4100360979950943e+00 3.5714828676268453e+01 1.2938663144256748e+00 0 0 0
363 1 4.4528875113266593e-02 3.4376286249391569e+01 2.8624505968063856e+00 0 0 0
1263 1 5.8925069870626237e+00 3.4465882967161249e+01 2.7605297732584702e+00 0 0 0
812 1 4.1952123636597802e+00 3.5829573152250234e+01 1.4053458998895689e+00 0 0 0
1713 1 8.6357909694589594e+00 3.4349858714913893e+01 2.8534199780293772e+00 0 0 0
1262 1 7.2892154838815619e+00 3.5650592057527959e+01 1.2734970978163618e+00 0 0 0
1682 1 1.0073225075405430e+01 3.3008278885864257e+01 1.3556854510609597e+00 0 0 0
2163 1 1.1679658055688618e+01 3.4248045954055527e+01 2.7535496050958179e+00 0 0 0
1740 1 1.0179494057862803e+01 3.5881238021227986e+01 1.3320078672217741e+00 0 0 1
2161 1 1.1503570726975155e+01 3.4379541124312169e+01 3.6172545889812113e-03 0 0 0
2162 1 1.2893513488844299e+01 3.5744529859555286e+01 1.3557189843319959e+00 0 0 0
2613 1 1.4374634608494539e+01 3.4315854486305881e+01 2.6419855765293430e+00 0 0 0
2612 1 1.5895707382448276e+01 3.5814738964090651e+01 1.3550883510498895e+00 0 0 0
3063 1 1.7183133456228433e+01 3.4277185075559032e+01 2.8168497185964716e+00 0 0 0
3062 1 1.8651008070839989e+01 3.5924801181429530e+01 1.3618757246648518e+00 0 0 0
3513 1 2.0196029303634166e+01 3.4272400912323420e+01 2.7269166404924374e+00 0 0 0
3512 1 2.1529423827452923e+01 3.5885469956899513e+01 1.4933677500149756e+00 0 0 0
3511 1 2.0047944134620039e+01 3.4377607540049809e+01 7.5270701012350116e-02 0 0 0
3963 1 2.2997025917558542e+01 3.4388293024041332e+01 2.8447568339859846e+00 0 0 0
3962 1 2.4331049865133132e+01 3.5795359377249099e+01 1.4709236372045131e+00 0 0 0
4413 1 2.5733941685109560e+01 3.4344262790443125e+01 2.8596372786219173e+00 0 0 0
4412 1 2.7170452761107416e+01 3.5729849414532751e+01 1.5177681874199185e+00 0 0 0
4411 1 2.5649457030809852e+01 3.4262697203688347e+01 5.5857861216278087e-02 0 0 0
4863 1 2.8540734232581720e+01 3.4306308366797140e+01 2.9260674845903165e+00 0 0 0
392 1 1.4360154953041633e+00 3.8400733986902623e+01 1.2491109635771980e+00 0 0 0
843 1 2.9628119580434871e+00 3.7128117208847556e+01 2.7004402571485171e+00 0 0 0
393 1 9.1852153115739479e-02 3.7195237730493702e+01 2.8050288776510222e+00 0 0 0
842 1 4.4873717156181758e+00 3.8522507015907635e+01 1.3753297977880381e+00 0 0 0
1293 1 5.7918457668842986e+00 3.7144413660749137e+01 2.7024932449916310e+00 0 0 0
1292 1 7.0908930937393793e+00 3.8571445935187540e+01 1.2895190114822557e+00 0 0 0
1743 1 8.6951220860346918e+00 3.7329438410603785e+01 2.7957392538435610e+00 0 0 0
1742 1 1.0086832462298277e+01 3.8472258974322571e+01 1.3357123431693911e+00 0 0 0
2193 1 1.1654919056614736e+01 3.7179358611324929e+01 2.7861907275689686e+00 0 0 0
2192 1 1.3030865471887278e+01 3.8564770820490281e+01 1.3377844600039459e+00 0 0 0
2643 1 1.4389662253822895e+01 3.7231637518029913e+01 2.7909801428903447e+00 0 0 0
2642 1 1.5741855683063676e+01 3.8619976122716693e+01 1.2886883514942087e+00 0 0 0
3092 1 1.8674232798645036e+01 3.8723956680561116e+01 1.3057186894981643e+00 0 0 0
3093 1 1.7257730353223327e+01 3.7358953007005098e+01 2.7754539156986722e+00 0 0 0
3543 1 2.0102919497100046e+01 3.7258374195529328e+01 2.9407561051534694e+00 0 0 0
3542 1 2.1513294274328086e+01 3.8674490760991489e+01 1.5779096754332149e+00 0 0 0
3992 1 2.4361650657924937e+01 3.8749290098200134e+01 1.5469690815434660e+00 0 0 0
3993 1 2.2951998303178101e+01 3.7216548243766582e+01 3.0018628792416462e+00 0 0 0
3991 1 2.2986946038212270e+01 3.7267613174818408e+01 1.0362708232084000e-02 0 0 0
4442 1 2.7241754177066582e+01 3.8661011209734454e+01 1.3778989301273294e+00 0 0 0
4443 1 2.5828877913503987e+01 3.7223558055677401e+01 2.8136490777998682e+00 0 0 0
4441 1 2.5616960106057647e+01 3.7194747079758457e+01 9.4851663562642463e-02 0 0 0
453 1 2.8857911874599540e+00 4.2643935840227016e+01 2.7162538309263158e+00 0 -1 0
422 1 1.5214864672285411e+00 4.1304570701868215e+01 1.2349689400666695e+00 0 0 0
873 1 2.8267681908854869e+00 3.9942705681814999e+01 2.7442503351387746e+00 0 0 0
423 1 5.8924862330628491e-02 3.9856530702787865e+01 2.7168792761963410e+00 0 0 0
3 1 9.5060383228558934e-02 4.2665658882636407e+01 2.6693154125855609e+00 0 -1 0
872 1 4.3794243717068904e+00 4.1420632099180466e+01 1.2958784570785931e+00 0 0 0
1323 1 5.7356077736176063e+00 4.0036373700997729e+01 2.7488674603461178e+00 0 0 0
1322 1 7.3335679095615545e+00 4.1328214167253549e+01 1.2965544436547820e+00 0 0 0
1773 1 8.7540847537835784e+00 4.0106226909779437e+01 2.7280736465395350e+00 0 0 0
1772 1 1.0104348150412161e+01 4.1343688693097434e+01 1.2571309062584848e+00 0 0 0
2223 1 1.1561478236817020e+01 3.9941082316495866e+01 2.7174655798876506e+00 0 0 0
2253 1 1.4239563002896324e+01 4.2797631139203403e+01 2.7447264462946608e+00 0 -1 0
2222 1 1.2909593248998993e+01 4.1267404753540603e+01 1.1970328914112887e+00 0 0 0
2673 1 1.4452044110108460e+01 4.0089753392295577e+01 2.8700589579426961e+00 0 0 0
2672 1 1.5770060248255540e+01 4.1292290464130858e+01 1.4876616653362154e+00 0 0 0
2703 1 1.7255213469128687e+01 4.2785886179843757e+01 2.7092438076837282e+00 0 -1 0
3122 1 1.8754126558167595e+01 4.1547945724636293e+01 1.2752899610742996e+00 0 0 0
3123 1 1.7290735052409961e+01 4.0004640778391163e+01 2.7501924931278037e+00 0 0 0
3121 1 1.7199257437114710e+01 4.0019788102832109e+01 2.0758597373379928e-02 0 0 0
3573 1 1.9960071050007503e+01 4.0166642385173063e+01 2.7681270680447621e+00 0 0 0
3572 1 2.1705431556907712e+01 4.1333275096834129e+01 1.4709512235905129e+00 0 0 0
4022 1 2.4377004902837800e+01 4.1565107076067179e+01 1.3961672119731461e+00 0 0 0
4023 1 2.2915306389064277e+01 4.0028428293805234e+01 2.9877527837810840e+00 0 0 0
4471 1 2.5645507895311194e+01 4.0088740414794515e+01 8.9778741022058739e-02 0 0 0
4472 1 2.7267647303752241e+01 4.1499361386809781e+01 1.5643607690984223e+00 0 0 0
4473 1 2.5718036936683681e+01 4.0141965551734827e+01 2.9529947497066957e+00 0 0 0
4 1 1.5565174478764188e+00 1.3733955286915722e+00 4.2260049637396868e+00 0 0 0
485 1 3.0265748929580574e+00 2.7595435661455205e+00 5.6182016510626509e+00 0 0 0
5 1 1.9634762055167992e-01 1.5885786697644733e-02 5.6860870729356048e+00 0 0 0
35 1 9.6589997124427757e-02 2.8766030503628777e+00 5.5999385909802921e+00 0 0 0
454 1 4.2723185998477247e+00 1.2039055231296290e+00 4.2043371035637209e+00 0 0 0
935 1 5.7686550010778506e+00 2.8496666728823481e+00 5.7009008392391403e+00 0 0 0
905 1 5.8200664447413697e+00 5.8681205572732154e-02 5.6639958900126395e+00 0 0 0
904 1 7.2740838591419168e+00 1.4609871205434664e+00 4.2037820666937318e+00 0 0 0
1385 1 8.7227208143348030e+00 2.7935599698847402e+00 5.7881375466340961e+00 0 0 0
1355 1 8.7163110000569404e+00 1.8380999025886524e-02 5.7091124174387451e+00 0 0 0
1354 1 1.0178164233580009e+01 1.3294354110818132e+00 4.2732336906418817e+00 0 0 0
1835 1 1.1387069286273041e+01 2.9238274000247846e+00 5.6249983972868707e+00 0 0 0
1804 1 1.2995016908251387e+01 1.4860570241978965e+00 4.1766527474260755e+00 0 0 0
2285 1 1.4353388925974549e+01 2.8616401622922143e+00 5.7285630041374587e+00 0 0 0
2254 1 1.5756930167633353e+01 1.5479016747375252e+00 4.2186044479645552e+00 0 0 0
2255 1 1.4243837218476669e+01 5.0847587894827573e-02 5.6800053486241380e+00 0 0 0
2704 1 1.8638324849855852e+01 1.3891586677193437e+00 4.1945785381837810e+00 0 0 0
2735 1 1.7252823474077122e+01 2.8094301088638174e+00 5.8147562801575647e+00 0 0 0
2705 1 1.7141823479833015e+01 5.6988047782582846e-02 5.7386497903294726e+00 0 0 0
3185 1 1.9958564833871421e+01 2.7920747904242122e+00 5.6433373897918937e+00 0 0 0
3154 1 2.1417965990204941e+01 1.5698392248530277e+00 4.2866362346533808e+00 0 0 0
3155 1 1.9951336216537918e+01 7.1219022111526836e-02 5.6542979434326863e+00 0 0 0
3604 1 2.4304936289071616e+01 1.5370008499255039e+00 4.2199901540020042e+00 0 0 0
3635 1 2.2918131653381867e+01 2.8924332223363796e+00 5.6907347744555947e+00 0 0 0
3605 1 2.2794231450823297e+01 6.3578885441436570e-02 5.6412926073184426e+00 0 0 0
4054 1 2.7238061728778263e+01 1.5110162387318975e+00 4.2614379343865414e+00 0 0 0