LAMMPS data file via write_data, version 7 Aug 2019, timestep = 29000

9000 atoms
1 atom types

-1.2454929418246455e-04 5.7106124549294186e+01 xlo xhi
-9.3411970636848420e-05 4.2829593411970642e+01 ylo yhi
-9.3411970636848420e-05 4.2829593411970642e+01 zlo zhi

Masses

1 56

Atoms # atomic

2 1 1.4939585342043176e+00 1.2097686758719757e+00 1.2336182247443113e+00 0 0 0
483 1 3.0115615279975616e+00 2.8399877307778150e+00 2.7179226000836345e+00 0 0 0
453 1 2.9147221206551293e+00 2.7056139758130371e-03 2.7229745222991726e+00 0 0 0
33 1 4.2348639694010003e-02 2.8064095948506065e+00 2.8124505439615937e+00 0 0 0
452 1 4.3006688329835168e+00 1.3783166291052755e+00 1.2455704137018768e+00 0 0 0
933 1 5.7611200669940752e+00 2.8171663406762577e+00 2.7366184774492877e+00 0 0 0
902 1 7.1663943100729588e+00 1.4021354090125002e+00 1.2810203066196741e+00 0 0 0
1383 1 8.5064914522689161e+00 2.7276641840434150e+00 2.7928821288028396e+00 0 0 0
1352 1 9.9871283889493654e+00 1.3803943189711085e+00 1.3444695767367603e+00 0 0 0
1833 1 1.1462768686313716e+01 2.8447182073753234e+00 2.6944423816028480e+00 0 0 0
1802 1 1.2882345975211509e+01 1.3679936053595640e+00 1.2960454481760963e+00 0 0 0
2283 1 1.4327169146251677e+01 2.7693703652630863e+00 2.5855117580260427e+00 0 0 0
2253 1 1.4274005275305926e+01 1.9492484252378681e-02 2.7597275840409798e+00 0 0 0
2252 1 1.5931657995693021e+01 1.3615143047019687e+00 1.2036743675394954e+00 0 0 0
2702 1 1.8566705438600579e+01 1.3221277334593866e+00 1.4001488789456835e+00 0 0 0
2733 1 1.7222810452800417e+01 2.8888893151653683e+00 2.7949694602347801e+00 0 0 0
2703 1 1.7184965323774428e+01 9.5165197174942762e-02 2.8840676006335109e+00 0 0 0
3183 1 1.9975778015544826e+01 2.7704977558540538e+00 2.9356056966100565e+00 0 0 0
3152 1 2.1343419032867441e+01 1.5730584135692434e+00 1.3579751649243954e+00 0 0 0
3602 1 2.4167274003434471e+01 1.5338868395358976e+00 1.4324243615197738e+00 0 0 0
3633 1 2.2865971334260252e+01 2.9237604394398642e+00 2.8853190541497198e+00 0 0 0
4052 1 2.7102607075264434e+01 1.3646073071122116e+00 1.3565275287339622e+00 0 0 0
4083 1 2.5656191373719761e+01 2.7627103255918506e+00 2.8790523067623446e+00 0 0 0
4051 1 2.5649516375159575e+01 4.1897906742277530e-02 1.9330231342174514e-02 0 0 0
4533 1 2.8515224011396604e+01 2.8799587407770075e+00 2.8711856053007629e+00 0 0 0
32 1 1.4751011463374837e+00 4.1382606586621611e+00 1.3406059605336529e+00 0 0 0
513 1 2.8981477022225079e+00 5.7180166187304335e+00 2.8400826791651386e+00 0 0 0
63 1 5.7208299926015581e-02 5.5300419534139911e+00 3.0094998713017014e+00 0 0 0
482 1 4.4099407621018702e+00 4.2166592611647911e+00 1.2240171965779134e+00 0 0 0
963 1 5.7241124314241869e+00 5.6060676571672268e+00 2.7214624373596199e+00 0 0 0
932 1 7.2984813953981620e+00 4.1926611517298724e+00 1.3115236547933924e+00 0 0 0
1413 1 8.7776944963658181e+00 5.7281186444118841e+00 2.9167970623017943e+00 0 0 0
1382 1 1.0066196207480020e+01 4.1517064792433551e+00 1.4325720167444891e+00 0 0 0
1863 1 1.1430777985525879e+01 5.6597079253779796e+00 2.8557629814804364e+00 0 0 0
1832 1 1.2919516425766819e+01 4.3249457072306523e+00 1.3498816320716853e+00 0 0 0
2313 1 1.4284212002243903e+01 5.5159487164744752e+00 2.8515607662286215e+00 0 0 0
2282 1 1.5756230246289523e+01 4.2297784088442061e+00 1.1769142361431151e+00 0 0 0
2732 1 1.8573618966362716e+01 4.2090439850599415e+00 1.2884482347494401e+00 0 0 0
2763 1 1.7376437409527590e+01 5.6520728443843362e+00 2.7746318956643536e+00 0 0 0
3213 1 2.0069729497401344e+01 5.7873508491659722e+00 2.7886873362208457e+00 0 0 0
3182 1 2.1400280379667887e+01 4.3358050858869195e+00 1.3840592472597608e+00 0 0 0
3632 1 2.4317248260182311e+01 4.2635818905936231e+00 1.4238290516091736e+00 0 0 0
3663 1 2.2970389102690206e+01 5.5811334677285984e+00 2.9473101827352743e+00 0 0 0
4082 1 2.7076646815608527e+01 4.2314647139929429e+00 1.3775420264618545e+00 0 0 0
4113 1 2.5712820149699034e+01 5.7269377280543905e+00 2.8027699918014077e+00 0 0 0
4563 1 2.8496076506342703e+01 5.6448375322095146e+00 2.8152430310543259e+00 0 0 0
62 1 1.5212678124030321e+00 7.0910166776576489e+00 1.4506434431407857e+00 0 0 0
543 1 2.9788738026095261e+00 8.5186532060367721e+00 2.9210928016517519e+00 0 0 0
93 1 5.9054929323662228e-02 8.4588035231399683e+00 2.8883300611093472e+00 0 0 0
512 1 4.3270456663759171e+00 7.1348487969934506e+00 1.3893989251096364e+00 0 0 0
993 1 5.8225788805120473e+00 8.3829738619524701e+00 2.8285646711985106e+00 0 0 0
962 1 7.2376772368068005e+00 6.9922373001287044e+00 1.2735675510468198e+00 0 0 0
1443 1 8.5851856482342370e+00 8.4644467547585496e+00 2.8899199123013846e+00 0 0 0
1441 1 8.6971905516252015e+00 8.5756178272298165e+00 5.5582977062137218e-02 0 0 0
1412 1 1.0101615706892130e+01 7.1242553225234904e+00 1.2416168858603114e+00 0 0 0
1893 1 1.1469789457593015e+01 8.5067530040254784e+00 2.7884593716961779e+00 0 0 0
1891 1 1.1543232114991280e+01 8.6948135969373705e+00 8.6095187733477019e-03 0 0 0
1862 1 1.2939942878485802e+01 6.9240805529535789e+00 1.4073788472485054e+00 0 0 0
2343 1 1.4363036469547561e+01 8.5006421417833202e+00 2.8682561405692821e+00 0 0 0
2312 1 1.5805722192411373e+01 6.9755820820182359e+00 1.3696191456030893e+00 0 0 0
2341 1 1.4541459022637266e+01 8.5866282490617909e+00 7.1759729790758758e-02 0 0 0
2762 1 1.8667423344224691e+01 7.1641108592424869e+00 1.3574387880841707e+00 0 0 0
2793 1 1.7246596194467948e+01 8.4930375164918317e+00 2.8820882342709759e+00 0 0 0
3212 1 2.1510393626549170e+01 7.1563195106550337e+00 1.4079844726885240e+00 0 0 0
3243 1 2.0157091705065781e+01 8.4496732084442829e+00 2.9106141728858135e+00 0 0 0
3662 1 2.4380093492518203e+01 7.0940886812338722e+00 1.3501395430523393e+00 0 0 0
3693 1 2.2880087973709387e+01 8.4941381916723060e+00 2.9335713270631851e+00 0 0 0
3692 1 2.4400274218985722e+01 9.8444857512667294e+00 1.3526599656473093e+00 0 0 0
4112 1 2.7235419803982623e+01 7.1756893277353351e+00 1.2962364616610245e+00 0 0 0
4143 1 2.5753512072932004e+01 8.5607650793253214e+00 2.8522813393657116e+00 0 0 0
4593 1 2.8457644968652893e+01 8.5916149020280734e+00 2.8175694467391228e+00 0 0 0
123 1 2.6410253405261489e-02 1.1302958908947849e+01 3.0096343432685266e+00 0 0 0
92 1 1.4218200929271465e+00 9.8848234304278009e+00 1.4177936985813879e+00 0 0 0
573 1 2.8802855028702363e+00 1.1380806442192283e+01 2.9523653973278372e+00 0 0 0
122 1 1.4555213741920094e+00 1.2733730314313464e+01 1.4300644638011566e+00 0 0 0
571 1 2.9377473893783757e+00 1.1275394193702109e+01 1.2788269522012286e-02 0 0 0
542 1 4.3454021314700775e+00 9.9418071765541338e+00 1.4129877306656993e+00 0 0 0
1023 1 5.6804490386362474e+00 1.1362864823829572e+01 2.9226237611267973e+00 0 0 0
572 1 4.2574606042772594e+00 1.2857045639397295e+01 1.3420404425235568e+00 0 0 0
992 1 7.1769975444901588e+00 1.0009358455066369e+01 1.4806573629267998e+00 0 0 0
1473 1 8.5548412595966958e+00 1.1433822514438496e+01 2.9551347591137613e+00 0 0 0
1022 1 7.0755034256761915e+00 1.2755616195239373e+01 1.4239740960693121e+00 0 0 0
1442 1 9.9709630464579124e+00 9.9007073939037227e+00 1.3666934707671270e+00 0 0 0
1923 1 1.1494951406851898e+01 1.1259347764560751e+01 2.8612765076139186e+00 0 0 0
1472 1 1.0144076969200070e+01 1.2945206092754852e+01 1.4948007345306771e+00 0 0 0
1921 1 1.1421522707716845e+01 1.1279407692124360e+01 3.0068937446046107e-03 0 0 0
1892 1 1.2994348636741378e+01 9.9173271251641122e+00 1.4250170073323782e+00 0 0 0
1922 1 1.2854051157891959e+01 1.2871261089506479e+01 1.5409373735203311e+00 0 0 0
2373 1 1.4275484686615217e+01 1.1361104185058927e+01 3.0067283884576339e+00 0 0 0
2372 1 1.5702053571091286e+01 1.2887026518915563e+01 1.4355811668073413e+00 0 0 0
2342 1 1.5706841721254143e+01 9.8982766850971071e+00 1.4694948312255987e+00 0 0 0
2792 1 1.8572544710528419e+01 1.0097320011019717e+01 1.5115323275116035e+00 0 0 0
2823 1 1.7076280086672288e+01 1.1439480525480114e+01 2.8018691782541647e+00 0 0 0
2822 1 1.8661852702364726e+01 1.2945812317979593e+01 1.2512565038678940e+00 0 0 0
2821 1 1.7249811000347943e+01 1.1441191583853993e+01 4.3083601519462889e-02 0 0 0
3242 1 2.1473415200473507e+01 9.8908666142005401e+00 1.3033738201365122e+00 0 0 0
3273 1 2.0027266195423124e+01 1.1432042591116756e+01 2.9027030658986823e+00 0 0 0
3272 1 2.1660652156516623e+01 1.2902521684852511e+01 1.2622899648347312e+00 0 0 0
3723 1 2.2781642114175451e+01 1.1315648778974934e+01 2.7870458557086404e+00 0 0 0
3722 1 2.4294899447348762e+01 1.2862710380704913e+01 1.4424476913887714e+00 0 0 0
3721 1 2.2888118933266906e+01 1.1453148894851058e+01 2.3621601069216069e-02 0 0 0
4142 1 2.7098284758619720e+01 9.9239777751353948e+00 1.3002303501507693e+00 0 0 0
4173 1 2.5629151313365217e+01 1.1304333567065722e+01 2.8380273650568548e+00 0 0 0
4172 1 2.7239063213089313e+01 1.2956711533608921e+01 1.4473840465823535e+00 0 0 0
4621 1 2.8533815673220140e+01 1.1484910542846068e+01 2.2339114977562247e-02 0 0 0
4623 1 2.8529083405788864e+01 1.1434278490579940e+01 2.7486474180488516e+00 0 0 0
4171 1 2.5811432764168270e+01 1.1493068594834495e+01 8.4878053765435977e-03 0 0 0
603 1 2.8859636205242891e+00 1.4244101561435738e+01 2.9118810343321719e+00 0 0 0
152 1 1.5458539096608950e+00 1.5814056993636104e+01 1.4936095730249512e+00 0 0 0
153 1 9.0529004463073687e-02 1.4314802431554087e+01 2.9874079437382717e+00 0 0 0
151 1 5.4283031506116686e-02 1.4244827075982444e+01 1.8668108718277682e-01 0 0 0
1053 1 5.7035042695670457e+00 1.4347519756541574e+01 2.7286356344070177e+00 0 0 0
602 1 4.3212339639468986e+00 1.5722008728284948e+01 1.3799017720101305e+00 0 0 0
1503 1 8.5694687566983170e+00 1.4263295027798513e+01 2.9712985257144764e+00 0 0 0
1052 1 7.1267181649375715e+00 1.5822450750617568e+01 1.2929650415938234e+00 0 0 0
1953 1 1.1505431363152763e+01 1.4271503696618767e+01 2.9090524779762168e+00 0 0 0
1502 1 1.0007684545415673e+01 1.5751104797254905e+01 1.4875644959447749e+00 0 0 0
1952 1 1.2882126000709908e+01 1.5789180402908524e+01 1.3968635581363151e+00 0 0 0
2403 1 1.4238379032794183e+01 1.4230047945441610e+01 2.8082308734481973e+00 0 0 0
2402 1 1.5673908418895497e+01 1.5745547151863736e+01 1.5342525154564295e+00 0 0 0
2853 1 1.7208998790046692e+01 1.4341711089289872e+01 2.8328180495104798e+00 0 0 0
2852 1 1.8600610257433445e+01 1.5783828420503674e+01 1.3691186127305903e+00 0 0 0
2851 1 1.7133899754401259e+01 1.4368507667144490e+01 7.1250120767756331e-02 0 0 0
3303 1 2.0053682548004588e+01 1.4291014589196489e+01 2.7863649728953290e+00 0 0 0
3302 1 2.1470656560584693e+01 1.5761595690622634e+01 1.2643266930780095e+00 0 0 0
3753 1 2.2771408317130504e+01 1.4276934887921010e+01 2.6519428604416624e+00 0 0 0
3752 1 2.4330490285666308e+01 1.5775917210548847e+01 1.4212852768466695e+00 0 0 0
4203 1 2.5661280737774295e+01 1.4213928932268349e+01 2.8442588010208341e+00 0 0 0
4202 1 2.7168768566449721e+01 1.5843789194564581e+01 1.4347367891694705e+00 0 0 0
182 1 1.4095527356980642e+00 1.8656490695685488e+01 1.4340543525142420e+00 0 0 0
633 1 2.8204528235150574e+00 1.7196074982658608e+01 2.9592492984855472e+00 0 0 0
183 1 1.0548479606298049e-02 1.7057565633249251e+01 2.9076473750058764e+00 0 0 0
632 1 4.3408123582668807e+00 1.8688439279050755e+01 1.5206628997046419e+00 0 0 0
1083 1 5.6412792566162722e+00 1.7263223966828889e+01 2.8721059107299221e+00 0 0 0
1082 1 7.1247664313453329e+00 1.8548428382634732e+01 1.2414572474459362e+00 0 0 0
1533 1 8.4956829168449683e+00 1.7192828722133935e+01 2.7611819610827872e+00 0 0 0
1532 1 9.8817025050381275e+00 1.8504125074564453e+01 1.3815612587531125e+00 0 0 0
1983 1 1.1529944932283421e+01 1.7217771117588416e+01 2.9215632169809114e+00 0 0 0
1982 1 1.2965480182232950e+01 1.8656557195945290e+01 1.3642412313560335e+00 0 0 0
2433 1 1.4307771918532525e+01 1.7259244433856917e+01 2.8004102955168841e+00 0 0 0
2432 1 1.5745265598430608e+01 1.8629157025027926e+01 1.3952754937470719e+00 0 0 0
2882 1 1.8727354201693821e+01 1.8605396620895146e+01 1.3086703052640631e+00 0 0 0
2883 1 1.7202111684782071e+01 1.7135350090030499e+01 2.9085241088621951e+00 0 0 0
3333 1 2.0170201074703776e+01 1.7091572323366634e+01 2.8062180736345375e+00 0 0 0
3332 1 2.1557682088047304e+01 1.8672895519285927e+01 1.4678448048342356e+00 0 0 0
3782 1 2.4420580170696994e+01 1.8693781211641163e+01 1.3468722762661978e+00 0 0 0
3783 1 2.3009035363055350e+01 1.7350642990900923e+01 2.7760187592423962e+00 0 0 0
3781 1 2.2980506708999851e+01 1.7258466257456639e+01 9.6586328390337567e-02 0 0 0
4232 1 2.7017220024348980e+01 1.8785272150121308e+01 1.3192852644577342e+00 0 0 0
4233 1 2.5780653070341163e+01 1.7233853710862032e+01 2.8391470366362488e+00 0 0 0
4681 1 2.8489001586135345e+01 1.7193442358558567e+01 6.9405314696872722e-02 0 0 0
663 1 2.8827218853212027e+00 2.0078582033706763e+01 2.8139979683031537e+00 0 0 0
212 1 1.4757795197912087e+00 2.1469359076991328e+01 1.4255042260544570e+00 0 0 0
693 1 2.8484340070018050e+00 2.2854203131722606e+01 2.8396073385751510e+00 0 0 0
213 1 3.2918323719769660e-02 1.9966716436406866e+01 2.8588267340490972e+00 0 0 0
241 1 2.0157376645663305e-02 2.2940436708763571e+01 9.0521402410608687e-02 0 0 0
1113 1 5.7767530061190229e+00 2.0037607592180080e+01 2.8411013234607383e+00 0 0 0
662 1 4.2972115330655916e+00 2.1506473974358375e+01 1.4367677946372575e+00 0 0 0
1143 1 5.8059741497284891e+00 2.2846015533185334e+01 2.7250472674577195e+00 0 0 0
1112 1 7.2636623266718923e+00 2.1573275004720195e+01 1.4245431277944074e+00 0 0 0
1563 1 8.5176968395532313e+00 2.0118838802481246e+01 2.6882516045883693e+00 0 0 0
1562 1 1.0064182491281834e+01 2.1590728913768302e+01 1.5846758619703760e+00 0 0 0
2013 1 1.1428264129692625e+01 2.0071329552210234e+01 2.7334723576944162e+00 0 0 0
2012 1 1.2917878973090854e+01 2.1486042009041135e+01 1.3353005504223958e+00 0 0 0
2463 1 1.4403214031042349e+01 2.0120936524135985e+01 2.8884149064976268e+00 0 0 0
2493 1 1.4358503499046160e+01 2.2881077127651690e+01 2.8650388380134948e+00 0 0 0
2462 1 1.5848938484263263e+01 2.1476506214290254e+01 1.3865588948483756e+00 0 0 0
2912 1 1.8654283773178321e+01 2.1433449608375845e+01 1.2905033586818186e+00 0 0 0
2913 1 1.7210428441024789e+01 2.0098254532807143e+01 2.7919272399654860e+00 0 0 0
2943 1 1.7207624197644620e+01 2.2939786036987471e+01 2.7810435980595072e+00 0 0 0
2941 1 1.7251542109410490e+01 2.2945226331317954e+01 3.7980557512277358e-02 0 0 0
3363 1 1.9977161808963803e+01 2.0036729968452054e+01 2.8110000989049708e+00 0 0 0
3362 1 2.1465193308411692e+01 2.1476643347321385e+01 1.4337796961696254e+00 0 0 0
3393 1 2.0058673986795934e+01 2.2797826163431747e+01 2.8727694233751433e+00 0 0 0
3361 1 2.0091317995399436e+01 1.9946803353246175e+01 4.1474843755722191e-03 0 0 0
3391 1 2.0022549801000043e+01 2.2961628056720599e+01 5.9486378415655974e-02 0 0 0
3813 1 2.2890473632901692e+01 2.0087811706130179e+01 2.8785776516706090e+00 0 0 0
3812 1 2.4305601224627591e+01 2.1498276099273941e+01 1.3391143821228211e+00 0 0 0
3843 1 2.2711585248833220e+01 2.2868663708966981e+01 2.8408199878659017e+00 0 0 0
4263 1 2.5495644812081341e+01 2.0066674879013565e+01 2.8633956979725848e+00 0 0 0
4262 1 2.7196387178197977e+01 2.1481998194037292e+01 1.3171793237164264e+00 0 0 0
4293 1 2.5687075231313582e+01 2.2895778521844161e+01 2.7804843889886564e+00 0 0 0
4741 1 2.8460985628144286e+01 2.2967097956832127e+01 1.7072145833455975e-02 0 0 0
4743 1 2.8445816465641858e+01 2.2904933806679875e+01 2.9221498933548995e+00 0 0 0
4713 1 2.8507642496995235e+01 2.0125760149095647e+01 2.9342795320601516e+00 0 0 0
242 1 1.4276894443217283e+00 2.4401314476624719e+01 1.4583432619729664e+00 0 0 0
723 1 2.9163727678694116e+00 2.5885973424833896e+01 2.8455778002206822e+00 0 0 0
721 1 2.9034811832023757e+00 2.5832237578478004e+01 7.3313786051656393e-03 0 0 0
273 1 1.1467419188794053e-02 2.5705220064437025e+01 3.0016624572406903e+00 0 0 0
271 1 7.3006987345394236e-03 2.5853518258419072e+01 6.0199207749354444e-02 0 0 0
692 1 4.3097288150275057e+00 2.4400220074919680e+01 1.3167559672550511e+00 0 0 0
1173 1 5.6174352099528875e+00 2.5808871110366962e+01 2.7637316129358700e+00 0 0 0
1593 1 8.5422260855523504e+00 2.3102053479726003e+01 2.7828460999454281e+00 0 0 0
1142 1 7.1270589434455474e+00 2.4472190809703477e+01 1.2635406210794065e+00 0 0 0
1623 1 8.4494873386041593e+00 2.5782023885643763e+01 2.7583863280667966e+00 0 0 0
2043 1 1.1483371324268969e+01 2.3063389981129621e+01 2.8119770858457827e+00 0 0 0
1592 1 1.0057636660696250e+01 2.4472409326227751e+01 1.4385709266492703e+00 0 0 0
2073 1 1.1481380082408913e+01 2.5834857479723382e+01 2.8732907385392714e+00 0 0 0
2042 1 1.2841643826415437e+01 2.4286780603384102e+01 1.4687937910020497e+00 0 0 0
2523 1 1.4393070102094200e+01 2.5788056372625494e+01 2.8278282178314185e+00 0 0 0
2492 1 1.5719959209047749e+01 2.4382093076263281e+01 1.3808634009517693e+00 0 0 0
2521 1 1.4316588063171109e+01 2.5737385937950268e+01 7.6960350172150527e-02 0 0 0
2942 1 1.8626008995105430e+01 2.4358672553105482e+01 1.3727868505595244e+00 0 0 0
2973 1 1.7205942855770569e+01 2.5809637642712694e+01 2.7822134501574363e+00 0 0 0
3423 1 1.9931483946451667e+01 2.5799663282117876e+01 2.9009148392169872e+00 0 0 0
3392 1 2.1541373134434910e+01 2.4350325920022435e+01 1.4434830395218188e+00 0 0 0
3842 1 2.4310286740307760e+01 2.4298132464796623e+01 1.4864271582100292e+00 0 0 0
3873 1 2.2915508233247778e+01 2.5822846518405537e+01 2.8882231517318986e+00 0 0 0
3871 1 2.2864573098935288e+01 2.5723153680612448e+01 3.7693665113785357e-02 0 0 0
4292 1 2.7104354800603193e+01 2.4334553175197751e+01 1.5118017493609075e+00 0 0 0
4323 1 2.5594451643174406e+01 2.5679498623111250e+01 2.8298615811506780e+00 0 0 0
4773 1 2.8541729485502206e+01 2.5782576923620365e+01 2.8231774422293148e+00 0 0 0
272 1 1.4746031858067432e+00 2.7263941620917542e+01 1.4919388699148812e+00 0 0 0
753 1 2.9408329465291825e+00 2.8636222583761906e+01 2.8606078127678951e+00 0 0 0
303 1 2.6955441504554756e-02 2.8656519591784271e+01 2.9273714970989135e+00 0 0 0
301 1 3.7353550970266269e-02 2.8742572229738393e+01 2.2928835867542737e-02 0 0 0
722 1 4.2926221728419316e+00 2.7257501255171785e+01 1.4501473950321138e+00 0 0 0
1203 1 5.6649007107063190e+00 2.8686417230251308e+01 2.8118466572100820e+00 0 0 0
1201 1 5.6501109000271121e+00 2.8639582809912771e+01 1.5978270940969708e-02 0 0 0
1172 1 7.0301281711317340e+00 2.7209965942499174e+01 1.4581906332000891e+00 0 0 0
1653 1 8.5980890908291769e+00 2.8612242707858556e+01 2.7754850092674990e+00 0 0 0
1622 1 1.0115128371928343e+01 2.7349365391716770e+01 1.3534798491146411e+00 0 0 0
2103 1 1.1572601771310151e+01 2.8510366414685393e+01 2.8832445370066373e+00 0 0 0
2072 1 1.3024560822866892e+01 2.7242847562905546e+01 1.3335112129032531e+00 0 0 0
2553 1 1.4415703767843697e+01 2.8555042185482527e+01 2.7509355616553650e+00 0 0 0
2522 1 1.5856583300739489e+01 2.7157406106255564e+01 1.3854152638004071e+00 0 0 0
2972 1 1.8611535701690695e+01 2.7181052941901974e+01 1.3226688422472590e+00 0 0 0
3003 1 1.7229458315513252e+01 2.8700047977583434e+01 2.9727000704644650e+00 0 0 0
3422 1 2.1448101875311579e+01 2.7261040722264937e+01 1.4012381993842802e+00 0 0 0
3453 1 1.9991353188247349e+01 2.8400450581518168e+01 2.8315356769100508e+00 0 0 0
3872 1 2.4340599553206946e+01 2.7140758216233383e+01 1.4581960141335990e+00 0 0 0
3903 1 2.2792721747033504e+01 2.8600939945158327e+01 2.8889973268919871e+00 0 0 0
3901 1 2.2863394326781961e+01 2.8523751206596572e+01 3.8864604819540224e-02 0 0 0
4322 1 2.7143934204158310e+01 2.7159970274181269e+01 1.4654294311303098e+00 0 0 0
4353 1 2.5713698526880510e+01 2.8584528537187410e+01 2.8350793311776443e+00 0 0 0
4351 1 2.5717848504274521e+01 2.8629239040709376e+01 5.8866579878632308e-02 0 0 0
302 1 1.4380690406420691e+00 3.0173787662406649e+01 1.5358592006256704e+00 0 0 0
332 1 1.5032951672491912e+00 3.2894642965066438e+01 1.1988781958571118e+00 0 0 0
783 1 2.9432818140466193e+00 3.1468639962818262e+01 2.9282333369399711e+00 0 0 0
752 1 4.2793877447762414e+00 3.0062959533522815e+01 1.4966786096079201e+00 0 0 0
1233 1 5.9338245817809385e+00 3.1445680710932390e+01 2.9070876577622791e+00 0 0 0
782 1 4.3518986380923943e+00 3.2648743481079990e+01 1.4940420012917603e+00 0 0 0
1202 1 7.1652294146035711e+00 3.0058593906378192e+01 1.3768511200377478e+00 0 0 0
1683 1 8.6200842277291940e+00 3.1388689178885297e+01 2.8396746593437663e+00 0 0 0
1232 1 7.1981976928784794e+00 3.2905746485230040e+01 1.3527398630365268e+00 0 0 0
1652 1 1.0187813185116390e+01 2.9951706680831482e+01 1.3915944898937032e+00 0 0 0
2133 1 1.1538332979470763e+01 3.1313566887093462e+01 2.9542497177490272e+00 0 0 0
1682 1 1.0040784543099917e+01 3.2701188913030450e+01 1.4369913301335113e+00 0 0 0
2102 1 1.3008820542549655e+01 2.9964910907860311e+01 1.3845889752058169e+00 0 0 0
2583 1 1.4396755457559561e+01 3.1452695841392465e+01 2.9068811223908639e+00 0 0 0
2132 1 1.3014909174632804e+01 3.2830841205701162e+01 1.3759197100039571e+00 0 0 0
2552 1 1.5861981611994967e+01 2.9893223194716040e+01 1.3217227880267213e+00 0 0 0
2582 1 1.5879867966387254e+01 3.2755823328458092e+01 1.4582652155348237e+00 0 0 0
3002 1 1.8719583366730831e+01 3.0012315506454790e+01 1.6579234198797770e+00 0 0 0
3033 1 1.7211230105515170e+01 3.1404899437864596e+01 2.9072366546540986e+00 0 0 0
3032 1 1.8637697850998187e+01 3.2745994976576654e+01 1.4013955567371390e+00 0 0 0
3452 1 2.1422544598348068e+01 3.0078829089755246e+01 1.5080631009400076e+00 0 0 0
3483 1 2.0032346445760233e+01 3.1486538441833176e+01 2.9165528905674716e+00 0 0 0
3482 1 2.1355420896246006e+01 3.2924972941671484e+01 1.3583757933129195e+00 0 0 0
3902 1 2.4114990329658461e+01 2.9972797706062348e+01 1.5735045561991354e+00 0 0 0
3933 1 2.2719370682134567e+01 3.1530892265500746e+01 2.8899021963674691e+00 0 0 0
3932 1 2.4258650129567620e+01 3.2804573741471316e+01 1.3695295057656911e+00 0 0 0
4352 1 2.7215704340912872e+01 3.0114260990770120e+01 1.3587386552437943e+00 0 0 0
4383 1 2.5607593578848864e+01 3.1418800963559246e+01 2.6458943766510279e+00 0 0 0
4382 1 2.7044207118099717e+01 3.2821026379770814e+01 1.3194549931861406e+00 0 0 0
4381 1 2.5673623218459607e+01 3.1288033307233043e+01 1.3840563675747031e-02 0 0 0
813 1 3.0273977968742103e+00 3.4173631522017885e+01 2.8149584189809209e+00 0 0 0
362 1 1.5165686561668190e+00 3.5517147000427087e+01 1.4550495152903091e+00 0 0 0
363 1 8.9879511858116809e-02 3.4072299372764078e+01 2.8556384976200255e+00 0 0 0
1263 1 5.6298190135138881e+00 3.4163110334889026e+01 2.8932313828929952e+00 0 0 0
812 1 4.4220645776921002e+00 3.5638191674114651e+01 1.2617245808543351e+00 0 0 0
1713 1 8.5602123517091027e+00 3.4330764330360608e+01 2.8006790234059373e+00 0 0 0
1262 1 7.0488105132856838e+00 3.5479859140139055e+01 1.4952817195699053e+00 0 0 0
2163 1 1.1516467364781656e+01 3.4202261462920589e+01 2.7079988557417569e+00 0 0 0
1712 1 1.0054305690205759e+01 3.5567167214415008e+01 1.4295982299038752e+00 0 0 0
2162 1 1.3012374413306754e+01 3.5666452859997662e+01 1.2527429756726878e+00 0 0 0
2613 1 1.4487829424469703e+01 3.4312480972149800e+01 2.7652186503191842e+00 0 0 0
2612 1 1.5845633409697061e+01 3.5851430763632848e+01 1.3519891062132945e+00 0 0 0
3063 1 1.7192433659524575e+01 3.4306705275762468e+01 2.9449860222310247e+00 0 0 0
3062 1 1.8623980264934421e+01 3.5715110891494419e+01 1.2862157055538765e+00 0 0 0
3061 1 1.7235296856027492e+01 3.4292747831679335e+01 6.4649339056111546e-02 0 0 0
3513 1 2.0168688089869786e+01 3.4417984116147565e+01 2.8614635587072703e+00 0 0 0
3512 1 2.1487219359444193e+01 3.5718639399836093e+01 1.1195946159718138e+00 0 0 0
3963 1 2.2780769247287370e+01 3.4343762707268482e+01 2.7854631864058623e+00 0 0 0
3962 1 2.4138704545506183e+01 3.5751241605308053e+01 1.3494415519077207e+00 0 0 0
4863 1 2.8544416995640820e+01 3.4316812024243092e+01 2.7742978252142860e+00 0 0 0
4413 1 2.5605167220300117e+01 3.4364642398527266e+01 2.6053632130179594e+00 0 0 0
4412 1 2.7134179343951406e+01 3.5658666200890252e+01 1.3381466239057302e+00 0 0 0
392 1 1.4232217796078284e+00 3.8411124775390419e+01 1.4632729831945945e+00 0 0 0
843 1 2.7702431075499141e+00 3.6938902417550011e+01 2.8381790874565240e+00 0 0 0
842 1 4.3305292048627386e+00 3.8393358794186767e+01 1.4480674402240676e+00 0 0 0
1293 1 5.7127528303650239e+00 3.7054707554131951e+01 2.9079002216486054e+00 0 0 0
1292 1 7.2050529840343494e+00 3.8416335717442266e+01 1.4775580449764403e+00 0 0 0
1743 1 8.5746476357029238e+00 3.6988570483956579e+01 2.9518804774895848e+00 0 0 0
1742 1 1.0021401708050350e+01 3.8436256135429772e+01 1.3753984943700930e+00 0 0 0
2193 1 1.1582670528990231e+01 3.6968070527251655e+01 2.8396695790318351e+00 0 0 0
2192 1 1.2936657284528582e+01 3.8444626292681548e+01 1.3444701837945610e+00 0 0 0
2643 1 1.4334937003265701e+01 3.7186063657849047e+01 2.7710042101580132e+00 0 0 0
2642 1 1.5732175955332318e+01 3.8551313852013934e+01 1.3381883578901734e+00 0 0 0
3092 1 1.8520398786559976e+01 3.8559943345626678e+01 1.2192113667732321e+00 0 0 0
3093 1 1.7281199290239282e+01 3.7247370818502290e+01 2.8050557701421845e+00 0 0 0
3543 1 1.9998533300624160e+01 3.7056270399771734e+01 2.6749494477274047e+00 0 0 0
3542 1 2.1466118279402160e+01 3.8557296729989147e+01 1.3210118936872537e+00 0 0 0
3992 1 2.4224229071854388e+01 3.8430068090257222e+01 1.3110075065581197e+00 0 0 0
3993 1 2.2573992306261815e+01 3.7061997768398882e+01 2.8659002473958517e+00 0 0 0
4443 1 2.5521653856714146e+01 3.7029090007569422e+01 2.7166419808379754e+00 0 0 0
4442 1 2.6964769393198246e+01 3.8438275800352429e+01 1.4786744710889306e+00 0 0 0
4893 1 2.8512553512305065e+01 3.7118153916385850e+01 2.7280713386907065e+00 0 0 0
422 1 1.4831899242872788e+00 4.1310723815248238e+01 1.3345675405708344e+00 0 0 0
873 1 2.8906656066667624e+00 3.9660435520267640e+01 2.9768978283374712e+00 0 0 0
903 1 5.7488372192893191e+00 4.2715737783502547e+01 2.7346801623347359e+00 0 -1 0
872 1 4.3461085571835865e+00 4.1206556722321963e+01 1.4712838636043848e+00 0 0 0
1323 1 5.7888645745780956e+00 3.9790631483558627e+01 2.9049721507753383e+00 0 0 0
1353 1 8.4595344579057841e+00 4.2590237368814002e+01 2.7659184775162604e+00 0 -1 0
1322 1 7.1224783879900677e+00 4.1154598125690569e+01 1.3108873930964973e+00 0 0 0
1773 1 8.7052634409987188e+00 3.9841514713153813e+01 2.8279219014546206e+00 0 0 0
1803 1 1.1465657675870322e+01 4.2779405191460725e+01 2.7789231320279062e+00 0 -1 0
1772 1 9.8867616288787410e+00 4.1303295331629158e+01 1.3169715876736718e+00 0 0 0
2223 1 1.1552535573196574e+01 3.9735659707921982e+01 2.8851932347541949e+00 0 0 0
2222 1 1.2897435131484162e+01 4.1438081181939921e+01 1.4130174887490454e+00 0 0 0
2673 1 1.4265744679207964e+01 3.9978044130929973e+01 2.7368600969482566e+00 0 0 0
2672 1 1.5733301633352717e+01 4.1453979738419108e+01 1.4082618981249828e+00 0 0 0
3122 1 1.8600841823491990e+01 4.1310801401934455e+01 1.2479868748206167e+00 0 0 0
3123 1 1.7220704383209466e+01 4.0032284029155122e+01 2.7294747255089922e+00 0 0 0
3153 1 2.0043514255795589e+01 4.2732668517493948e+01 2.7621743341509384e+00 0 -1 0
3573 1 2.0048443622277560e+01 3.9989183527614927e+01 2.7788129929245033e+00 0 0 0
3572 1 2.1631196065650496e+01 4.1353123614512157e+01 1.2323107426875219e+00 0 0 0
3603 1 2.2863259661793560e+01 4.2706365333264927e+01 2.8307946245005859e+00 0 -1 0
4022 1 2.4340799722525418e+01 4.1346286912658513e+01 1.4226933362875451e+00 0 0 0
4023 1 2.2967533777332886e+01 4.0010116055556978e+01 2.8370677502165020e+00 0 0 0
4053 1 2.5782942646616348e+01 4.2809453425809622e+01 2.8412073856755997e+00 0 -1 0
4472 1 2.7089369864173481e+01 4.1255443091965745e+01 1.4412868762015716e+00 0 0 0
4473 1 2.5615274355418450e+01 3.9948158512520109e+01 2.9055586139320715e+00 0 0 0
4503 1 2.8367209704426319e+01 4.2766827847132774e+01 2.7870140659034615e+00 0 -1 0
4 1 1.4777327218374785e+00 1.2417941359388285e+00 4.2463597150893824e+00 0 0 0
485 1 3.1186526359203142e+00 2.6879685729668914e+00 5.8069345346606731e+00 0 0 0
35 1 2.0484348598008437e-02 2.7541855022623247e+00 5.7971817999276078e+00 0 0 0
454 1 4.3703576596862028e+00 1.3075840410423405e+00 4.2590354080083612e+00 0 0 0
935 1 5.7063405438217023e+00 2.7068213436845339e+00 5.7528315365309108e+00 0 0 0
904 1 6.9730991433092582e+00 1.2883745210493165e+00 4.2722061149207633e+00 0 0 0
1385 1 8.5683656735183735e+00 2.6299472840273403e+00 5.6934920238778073e+00 0 0 0
1354 1 1.0003555109619352e+01 1.1969332143352895e+00 4.2447588184573295e+00 0 0 0
1835 1 1.1556781933206798e+01 2.7614815074177317e+00 5.6179510218508373e+00 0 0 0
1804 1 1.2898040573382250e+01 1.3194785851905761e+00 4.1833158250571438e+00 0 0 0
2285 1 1.4376947488080214e+01 2.8691179135630067e+00 5.6207022679948313e+00 0 0 0
2254 1 1.5748362776719629e+01 1.3654455005818660e+00 4.2305507159929334e+00 0 0 0
2704 1 1.8673606401633020e+01 1.4121696489371665e+00 4.2192846720518737e+00 0 0 0
2735 1 1.7178838646201907e+01 2.8503632406252546e+00 5.7599754676547921e+00 0 0 0
3185 1 2.0024310286831202e+01 2.7974795616759969e+00 5.7508780253719127e+00 0 0 0
3154 1 2.1503271810032420e+01 1.3753054595645768e+00 4.2391082825697346e+00 0 0 0
3604 1 2.4285745390639217e+01 1.3985836126411113e+00 4.4272480571177280e+00 0 0 0
3635 1 2.2771263691887956e+01 2.8066402522766039e+00 5.7040363385645838e+00 0 0 0
3605 1 2.2821143361074164e+01 3.4222236143761603e-02 5.7317603455534254e+00 0 0 0
4054 1 2.7196591664132956e+01 1.4196656546646711e+00 4.3454436879540195e+00 0 0 0
4085 1 2.5735607703375926e+01 2.7226693462394813e+00 5.7370771142695931e+00 0 0 0
4055 1 2.5683551737183326e+01 6.1550325473312739e-02 5.7989219561677503e+00 0 0 0
34 1 1.4913923232100150e+00 4.0831454351745373e+00 4.4116436366315455e+00 0 0 0
515 1 2.9215656542685053e+00 5.5017845541053365e+00 5.8262582059814463e+00 0 0 0
484 1 4.3128328116746966e+00 4.1394123415645705e+00 4.2559576716169083e+00 0 0 0
965 1 5.7026102074730876e+00 5.6627695072296929e+00 5.7947394944598258e+00 0 0 0
934 1 7.2121818166250469e+00 4.1320360906245579e+00 4.2790320944316544e+00 0 0 0
1415 1 8.4528330109668222e+00 5.6833514458803140e+00 5.7901233850046117e+00 0 0 0
1384 1 1.0018892186670827e+01 4.1900391236091590e+00 4.2947709273104788e+00 0 0 0