LAMMPS data file via write_data, version 7 Aug 2019, timestep = 28000

9000 atoms
1 atom types

-1.2454929418246455e-04 5.7106124549294186e+01 xlo xhi
-9.3411970636848420e-05 4.2829593411970642e+01 ylo yhi
-9.3411970636848420e-05 4.2829593411970642e+01 zlo zhi

Masses

1 56

Atoms # atomic

2 1 1.3628226122665372e+00 1.4281586957586625e+00 1.4632224012497612e+00 0 0 0
483 1 2.9929925563881921e+00 2.9087522697840495e+00 2.6042399367106168e+00 0 0 0
452 1 4.2857358255494358e+00 1.3877445970966484e+00 1.2974273257602302e+00 0 0 0
933 1 5.9493716842333217e+00 2.8772965238257284e+00 2.8064253687118828e+00 0 0 0
902 1 7.3530294367930917e+00 1.3333157914501974e+00 1.3374690594131688e+00 0 0 0
1383 1 8.7455095093305228e+00 2.9668986482144262e+00 2.7138924960127171e+00 0 0 0
1352 1 1.0082656201988451e+01 1.4375169521809505e+00 1.2991854609784124e+00 0 0 0
1833 1 1.1705606772276605e+01 3.0643180008671882e+00 2.7088032138809668e+00 0 0 0
1803 1 1.1586226951898158e+01 8.6692454793463949e-02 2.6987384860363486e+00 0 0 0
1802 1 1.3238766093699114e+01 1.4818840381689917e+00 1.2857089638849633e+00 0 0 0
2283 1 1.4554019580923272e+01 3.0152491886923172e+00 2.7871928174837843e+00 0 0 0
2253 1 1.4536355467964839e+01 2.8014196478345355e-02 2.8358602098381667e+00 0 0 0
2252 1 1.5901879310239746e+01 1.4271073186849506e+00 1.2858531718455330e+00 0 0 0
2702 1 1.8702152874842046e+01 1.6166314544515901e+00 1.1875233890151284e+00 0 0 0
2733 1 1.7228624424012835e+01 2.9572086220093801e+00 2.8378332409899398e+00 0 0 0
2703 1 1.7347222950835100e+01 4.8502059155133281e-02 2.5999091394368352e+00 0 0 0
3183 1 1.9960279549329410e+01 2.9896191893325446e+00 2.8220784688154681e+00 0 0 0
3152 1 2.1474632274170570e+01 1.4611251736905979e+00 1.2543803845056296e+00 0 0 0
3153 1 2.0028563335162371e+01 1.7244104087448098e-01 2.8188840837131335e+00 0 0 0
3602 1 2.4331306775579247e+01 1.3737864686090842e+00 1.4438751180016116e+00 0 0 0
3633 1 2.2922371234853941e+01 2.8119789242242383e+00 2.7111449084284520e+00 0 0 0
3631 1 2.2879211986075159e+01 2.9502005413399974e+00 3.1592198281983057e-02 0 0 0
3603 1 2.2860782535505152e+01 6.6067777583121767e-02 2.7880918057235284e+00 0 0 0
4052 1 2.7124043191635209e+01 1.6226030154586102e+00 1.4238896010986810e+00 0 0 0
4083 1 2.5697951062574575e+01 2.9708419021097923e+00 2.8405329268291939e+00 0 0 0
4053 1 2.5776328606812854e+01 9.7446776048066883e-02 2.7741076824332453e+00 0 0 0
4531 1 2.8526981062695160e+01 2.8124084635825923e+00 2.8274981202348264e-02 0 0 0
32 1 1.3659896846803852e+00 4.2327024371927893e+00 1.3975605171067402e+00 0 0 0
513 1 2.8842789936620465e+00 5.8830085347375149e+00 2.6659767525302107e+00 0 0 0
482 1 4.4623872748619720e+00 4.2337048304037799e+00 1.1777228384185634e+00 0 0 0
963 1 5.7165773727587270e+00 5.8075143637194993e+00 2.7178064579025270e+00 0 0 0
932 1 7.3192375158973633e+00 4.3341199266191870e+00 1.4906124738768383e+00 0 0 0
1413 1 8.6546588748274473e+00 5.6883986654174672e+00 2.8522616142940840e+00 0 0 0
1382 1 1.0208146695367050e+01 4.4161019718188879e+00 1.2127612045870935e+00 0 0 0
1863 1 1.1518857616993698e+01 5.8520448513710965e+00 2.7789243139683970e+00 0 0 0
1861 1 1.1532404461945776e+01 5.9371981733319048e+00 5.1755238931932013e-03 0 0 0
1832 1 1.2995552888899148e+01 4.3877335523825280e+00 1.3559508615283486e+00 0 0 0
2313 1 1.4454135035494781e+01 5.7255347819236890e+00 2.7230547415972941e+00 0 0 0
2311 1 1.4538039444904090e+01 5.7339531994115571e+00 1.3847535672784833e-01 0 0 0
2282 1 1.5999472163637034e+01 4.4206230549972849e+00 1.3899582637227661e+00 0 0 0
2732 1 1.8754663631806324e+01 4.3908090518905167e+00 1.3926471211456648e+00 0 0 0
2763 1 1.7339013589443169e+01 5.8916247243318240e+00 2.8995495047158113e+00 0 0 0
2761 1 1.7351135872325113e+01 5.9224277362748960e+00 4.4046932377115648e-02 0 0 0
3213 1 2.0027828535269535e+01 5.8332001391806418e+00 2.9185019955755842e+00 0 0 0
3182 1 2.1483324984959260e+01 4.3241977239031701e+00 1.5129065059291804e+00 0 0 0
3211 1 2.0070025956077412e+01 5.8124800309357427e+00 1.7187317702642799e-01 0 0 0
3632 1 2.4332758994232357e+01 4.3849537525239288e+00 1.3676051523318131e+00 0 0 0
3663 1 2.2979534188418864e+01 5.7454366078510866e+00 2.8307775601207328e+00 0 0 0
4111 1 2.5737307053562471e+01 5.7758667869140323e+00 3.4558414790808616e-02 0 0 0
4113 1 2.5781341730818209e+01 5.7681549154897631e+00 2.8178474382501668e+00 0 0 0
4082 1 2.7259654752888846e+01 4.4344748458405467e+00 1.4870807353338844e+00 0 0 0
62 1 1.3818345963180390e+00 7.2867426123837209e+00 1.3319499769782983e+00 0 0 0
543 1 2.9824097374409568e+00 8.8100689919676736e+00 2.6864462188964793e+00 0 0 0
512 1 4.3774343069982029e+00 7.2855085060023219e+00 1.2742375608490015e+00 0 0 0
993 1 5.8275000113139370e+00 8.6268027864299217e+00 2.7434908251927901e+00 0 0 0
962 1 7.3313020476919428e+00 7.2971168389712648e+00 1.3366023272132037e+00 0 0 0
1443 1 8.6859512949345650e+00 8.7073904685794083e+00 2.6976963627436281e+00 0 0 0
1412 1 1.0203548901951503e+01 7.2692162994365308e+00 1.3312491787840692e+00 0 0 0
1893 1 1.1666440810982404e+01 8.7557304083970475e+00 2.7102016217581992e+00 0 0 0
1862 1 1.3117784736887723e+01 7.1816524112550457e+00 1.4270797520656742e+00 0 0 0
2343 1 1.4538116758057493e+01 8.7303064878558132e+00 2.7555469765306260e+00 0 0 0
2312 1 1.5942785443352591e+01 7.2897558289534565e+00 1.4856223346409627e+00 0 0 0
2762 1 1.8779064587169007e+01 7.2351279605117247e+00 1.4345352808144773e+00 0 0 0
2793 1 1.7329023090119282e+01 8.6724967263557158e+00 2.8585038027748211e+00 0 0 0
2791 1 1.7442252149735992e+01 8.7421261282601073e+00 5.9415061451570023e-02 0 0 0
3212 1 2.1547144177951125e+01 7.2728981411971150e+00 1.4422304633346081e+00 0 0 0
3243 1 2.0207315449956408e+01 8.5733632967021940e+00 2.8600091335646876e+00 0 0 0
3241 1 2.0077426926988899e+01 8.7171011220578158e+00 1.0385733485763859e-01 0 0 0
3662 1 2.4502306679851209e+01 7.3377463621283567e+00 1.3471934337304092e+00 0 0 0
3693 1 2.3014233752633814e+01 8.6090658282012900e+00 2.8620946184031513e+00 0 0 0
3691 1 2.2976842534209524e+01 8.7434625243193125e+00 1.5047007979531007e-01 0 0 0
4112 1 2.7264723941517762e+01 7.1059338378988368e+00 1.4276412122950486e+00 0 0 0
4143 1 2.5768138549047180e+01 8.6668040093001029e+00 2.8380677944206085e+00 0 0 0
4141 1 2.5735444202098400e+01 8.8005239177327468e+00 8.3464743885249673e-02 0 0 0
92 1 1.3495871687848782e+00 1.0245321080543389e+01 1.2892959248991409e+00 0 0 0
573 1 2.9056189701773851e+00 1.1528650143845580e+01 2.7038167467038936e+00 0 0 0
122 1 1.4274867102953805e+00 1.2930074944634985e+01 1.2824071838134188e+00 0 0 0
542 1 4.5048784247218192e+00 1.0167150110093834e+01 1.2662485588971084e+00 0 0 0
1023 1 5.7594730914742831e+00 1.1674473219663939e+01 2.7886488459104375e+00 0 0 0
572 1 4.2366868721684474e+00 1.2821735348045875e+01 1.2583852890986922e+00 0 0 0
992 1 7.3908867006332697e+00 1.0171129283547375e+01 1.2207661561572931e+00 0 0 0
1473 1 8.6510765680506037e+00 1.1594307096314099e+01 2.7688681728228981e+00 0 0 0
1022 1 7.3755980399083851e+00 1.2909545109015331e+01 1.2091420393728947e+00 0 0 0
1442 1 1.0038549675869792e+01 1.0120421103695701e+01 1.2721394847596821e+00 0 0 0
1923 1 1.1650634798302768e+01 1.1558938531285694e+01 2.8895882093106997e+00 0 0 0
1472 1 1.0049117206778897e+01 1.2889148680025880e+01 1.3248242335519962e+00 0 0 0
1921 1 1.1524010669333647e+01 1.1526862377675791e+01 7.0756362658363922e-02 0 0 0
1892 1 1.3155118822915258e+01 1.0235058346950980e+01 1.3777602675530864e+00 0 0 0
1922 1 1.2969531375591666e+01 1.2998473012064157e+01 1.2949048183178455e+00 0 0 0
2373 1 1.4452736642355829e+01 1.1673265853104619e+01 2.7738166774766992e+00 0 0 0
2342 1 1.5861156890666129e+01 1.0086802043111970e+01 1.3330793139442876e+00 0 0 0
2372 1 1.5705000231884119e+01 1.3107111368572633e+01 1.3190460862331139e+00 0 0 0
2792 1 1.8739393842492994e+01 1.0078522103043371e+01 1.4784085452940621e+00 0 0 0
2823 1 1.7247288729453736e+01 1.1598875522303103e+01 2.7682068472091768e+00 0 0 0
2822 1 1.8678093990341644e+01 1.2820955402299949e+01 1.4277613385241708e+00 0 0 0
3242 1 2.1482893047456169e+01 1.0337927912829523e+01 1.4579658387477819e+00 0 0 0
3273 1 2.0237483400014934e+01 1.1681580397609284e+01 2.9137478084881678e+00 0 0 0
3272 1 2.1560818847984667e+01 1.2917356380554475e+01 1.4453461223517152e+00 0 0 0
3692 1 2.4368159940283093e+01 1.0227196917677620e+01 1.3799487279187266e+00 0 0 0
3723 1 2.3064771292758895e+01 1.1567564417893381e+01 2.8396222394087602e+00 0 0 0
3722 1 2.4366383310731624e+01 1.2981056527084629e+01 1.3764384358461113e+00 0 0 0
4142 1 2.7224301977648711e+01 1.0055948292912072e+01 1.4690535770858195e+00 0 0 0
4173 1 2.5848505487701580e+01 1.1567690610104464e+01 2.7700454811501234e+00 0 0 0
4172 1 2.7217409212369986e+01 1.3058940295949235e+01 1.3176169612227333e+00 0 0 0
4623 1 2.8500308590058932e+01 1.1571972670755210e+01 2.8627010406664839e+00 0 0 0
603 1 2.8582966825982243e+00 1.4403952447469006e+01 2.7012874663240964e+00 0 0 0
152 1 1.4444998022016065e+00 1.5877312550086945e+01 1.2972937535349338e+00 0 0 0
1053 1 5.8922707538000099e+00 1.4383086465844922e+01 2.5219416625979294e+00 0 0 0
602 1 4.3182887740112603e+00 1.5748747783928366e+01 1.2149352501101216e+00 0 0 0
1503 1 8.6077232291911070e+00 1.4416760246436468e+01 2.7297656332771103e+00 0 0 0
1052 1 7.1655526190365100e+00 1.5929920478809466e+01 1.2684596037638023e+00 0 0 0
1953 1 1.1557194919452103e+01 1.4430937744895200e+01 2.6469974914354837e+00 0 0 0
1502 1 1.0060257700492008e+01 1.5838740602516827e+01 1.2737482985547472e+00 0 0 0
1952 1 1.2929136336654302e+01 1.5912499657190827e+01 1.2614836259234743e+00 0 0 0
2403 1 1.4277371900651209e+01 1.4566779564826135e+01 2.8074656922855792e+00 0 0 0
2402 1 1.5757429209938541e+01 1.5798046326243163e+01 1.3362018763778198e+00 0 0 0
2853 1 1.7288133267094064e+01 1.4484862863690481e+01 2.7137667413344295e+00 0 0 0
2852 1 1.8789907557723350e+01 1.5800329594073652e+01 1.2957726441834971e+00 0 0 0
3303 1 2.0139509185620657e+01 1.4458959877301307e+01 2.8286496873019100e+00 0 0 0
3302 1 2.1468209196466816e+01 1.5828735928787708e+01 1.2443151976663804e+00 0 0 0
3301 1 2.0038561016037594e+01 1.4205055170987698e+01 8.9387444974765185e-03 0 0 0
3753 1 2.2893052151226346e+01 1.4519105513544355e+01 2.7888707583431525e+00 0 0 0
3752 1 2.4296501247853644e+01 1.5980861020663903e+01 1.2651970585660353e+00 0 0 0
4203 1 2.5718943523657241e+01 1.4440216013776830e+01 2.7656752586908322e+00 0 0 0
4202 1 2.7025180437603296e+01 1.5731697118610541e+01 1.2127538719243476e+00 0 0 0
4653 1 2.8499664171578097e+01 1.4349071765692189e+01 2.7937440712023620e+00 0 0 0
182 1 1.4788875773926717e+00 1.8606787999629070e+01 1.2689660936375549e+00 0 0 0
633 1 2.9341661068555660e+00 1.7227002513202585e+01 2.7668875839851741e+00 0 0 0
632 1 4.2718426234983635e+00 1.8594547869250512e+01 1.2514152651089296e+00 0 0 0
1083 1 5.7473901854001062e+00 1.7178515691593805e+01 2.7374737408419878e+00 0 0 0
1082 1 7.2705811169237533e+00 1.8657035888639932e+01 1.2255202884273915e+00 0 0 0
1533 1 8.6845875422618448e+00 1.7036608375206360e+01 2.6300774679225656e+00 0 0 0
1532 1 1.0163351815794426e+01 1.8453166911381903e+01 1.4739093343444050e+00 0 0 0
1983 1 1.1562911089881997e+01 1.7191703527860405e+01 2.7334656044969519e+00 0 0 0
1982 1 1.2931993613474761e+01 1.8596192487260577e+01 1.3033142290088504e+00 0 0 0
2433 1 1.4389924555052987e+01 1.7130679037768900e+01 2.7192878637392464e+00 0 0 0
2432 1 1.5888899058058405e+01 1.8688865734094200e+01 1.3382639334407331e+00 0 0 0
2882 1 1.8743205783513215e+01 1.8707747002196069e+01 1.3563624588767287e+00 0 0 0
2883 1 1.7323077120025914e+01 1.7044646039975792e+01 2.6715441598692142e+00 0 0 0
3333 1 2.0223361124911236e+01 1.7257669521578926e+01 2.7380235487401658e+00 0 0 0
3332 1 2.1472497725252051e+01 1.8621284248454863e+01 1.3450267780242939e+00 0 0 0
3782 1 2.4333244308258099e+01 1.8702337185029862e+01 1.2751356814382087e+00 0 0 0
3783 1 2.2778448690240626e+01 1.7140093523089991e+01 2.7132787528053313e+00 0 0 0
4233 1 2.5664008831572126e+01 1.7332586627659087e+01 2.6931840122237669e+00 0 0 0
4261 1 2.7027762929201906e+01 1.8705035798807593e+01 1.2718648534809269e+00 0 0 0
4683 1 2.8490180453926726e+01 1.7113581679599715e+01 2.6963956748798776e+00 0 0 0
663 1 2.8724359334343936e+00 2.0025245107407400e+01 2.7608468201890144e+00 0 0 0
212 1 1.5004952479281011e+00 2.1351333632249638e+01 1.1349138391482831e+00 0 0 0
693 1 2.9084541643202146e+00 2.2807479800675857e+01 2.8676707978555065e+00 0 0 0
241 1 5.0822117482489659e-02 2.2850481322390980e+01 1.1038744318273969e-01 0 0 0
662 1 4.3104964925611648e+00 2.1506298256845515e+01 1.3432087698140940e+00 0 0 0
1113 1 5.7724866345107806e+00 1.9889274963828907e+01 2.6549021639873711e+00 0 0 0
1143 1 5.8087059677421768e+00 2.2883042113885089e+01 2.7263415433131688e+00 0 0 0
1141 1 5.7447120921757469e+00 2.2935006433224860e+01 5.3999317430048002e-02 0 0 0
1563 1 8.6599168499490506e+00 2.0049613818253039e+01 2.7469338252739219e+00 0 0 0
1112 1 7.2370941639410749e+00 2.1527899574955132e+01 1.3118350172194559e+00 0 0 0
1593 1 8.7346601663717944e+00 2.2912680176480759e+01 2.7756456475301654e+00 0 0 0
1562 1 1.0089118514755247e+01 2.1291908564171170e+01 1.1808799627733186e+00 0 0 0
2013 1 1.1607715816726879e+01 2.0043653679433948e+01 2.6952722864745273e+00 0 0 0
2043 1 1.1568346367972746e+01 2.2884985386838622e+01 2.5766103907211670e+00 0 0 0
2012 1 1.2980361870214619e+01 2.1373325890470607e+01 1.3468894329967902e+00 0 0 0
2463 1 1.4449058187913456e+01 2.0052455272122859e+01 2.6456549587832625e+00 0 0 0
2493 1 1.4359639027442238e+01 2.2800880055794558e+01 2.7621085787516861e+00 0 0 0
2491 1 1.4485857036137743e+01 2.2791733635332822e+01 4.5523680694756763e-03 0 0 0
2462 1 1.6000550929521523e+01 2.1530076473985762e+01 1.3043628544936017e+00 0 0 0
2912 1 1.8721182584020976e+01 2.1520507576389246e+01 1.4140117167249346e+00 0 0 0
2913 1 1.7144057644937622e+01 1.9954324340855941e+01 2.7825783004180260e+00 0 0 0
2943 1 1.7392134688574579e+01 2.2959906630653823e+01 2.9297107702899887e+00 0 0 0
2911 1 1.7194978624373022e+01 2.0033251448121263e+01 3.5979062928071764e-02 0 0 0
3363 1 2.0099168340774174e+01 2.0141663095771470e+01 2.7119838660283553e+00 0 0 0
3362 1 2.1487405306583128e+01 2.1436674003258751e+01 1.4100845436305911e+00 0 0 0
3393 1 2.0074906922631762e+01 2.2885119703651895e+01 2.9802469428845182e+00 0 0 0
3391 1 2.0093872577766337e+01 2.2904580204669109e+01 6.4340105619713484e-02 0 0 0
3812 1 2.4414601857724026e+01 2.1481840457252353e+01 1.3468991982878824e+00 0 0 0
3813 1 2.3028318712140155e+01 2.0020875532426349e+01 2.6783544083807591e+00 0 0 0
3843 1 2.2900565084024691e+01 2.2841344216917296e+01 2.8188727325700538e+00 0 0 0
4262 1 2.7150989523271832e+01 2.1397070690445005e+01 1.2516813920006589e+00 0 0 0
4293 1 2.5595402295714710e+01 2.2889454364287879e+01 2.7142098906190752e+00 0 0 0
4263 1 2.5816993387173056e+01 2.0108752248266327e+01 2.8528348509910018e+00 0 0 0
4741 1 2.8547164122068871e+01 2.2967389838546421e+01 3.1985410478947228e-02 0 0 0
4743 1 2.8464009361612355e+01 2.2952197601678773e+01 2.7783195469358173e+00 0 0 0
242 1 1.3909545817089162e+00 2.4216300608264344e+01 1.4508552220177542e+00 0 0 0
723 1 2.9106532406046512e+00 2.5650349695904048e+01 2.8711875182812272e+00 0 0 0
692 1 4.4675484579863474e+00 2.4328126106693457e+01 1.4470406830184808e+00 0 0 0
1173 1 5.9204599286003736e+00 2.5678813025308841e+01 2.8447995855452457e+00 0 0 0
1171 1 5.9598885156907881e+00 2.5583260908731770e+01 5.8074321919214356e-02 0 0 0
1142 1 7.4107147611054804e+00 2.4265362247322823e+01 1.4492532620313270e+00 0 0 0
1623 1 8.8714134801873747e+00 2.5697314593228871e+01 2.7717038865181434e+00 0 0 0
1592 1 1.0083711400847648e+01 2.4258012915412298e+01 1.3388530727029968e+00 0 0 0
2073 1 1.1739096538718137e+01 2.5775764479728142e+01 2.6988595191703748e+00 0 0 0
2042 1 1.3043485777797386e+01 2.4332388269198905e+01 1.3542014555193040e+00 0 0 0
2523 1 1.4318204377862953e+01 2.5714488028492678e+01 2.7335371303293523e+00 0 0 0
2492 1 1.5698077351423272e+01 2.4361075731367183e+01 1.3243551768805824e+00 0 0 0
2942 1 1.8745791458229824e+01 2.4341278578265936e+01 1.3659690477763866e+00 0 0 0
2973 1 1.7209435536964541e+01 2.5717044675941718e+01 2.8674338491878633e+00 0 0 0
3392 1 2.1421754669508150e+01 2.4338188908623160e+01 1.4145841090249127e+00 0 0 0
3423 1 2.0018696191316213e+01 2.5670151209461785e+01 2.7262659194574947e+00 0 0 0
3842 1 2.4430236679566921e+01 2.4380918509064823e+01 1.3252173744667533e+00 0 0 0
3873 1 2.2898819360417953e+01 2.5725086174398822e+01 2.7431806647660606e+00 0 0 0
4773 1 2.8472594765256478e+01 2.5787576108399723e+01 2.7968989757485447e+00 0 0 0
4292 1 2.7204066867682418e+01 2.4358496834033840e+01 1.4665922448091349e+00 0 0 0
4323 1 2.5633534440981052e+01 2.5631535401233300e+01 2.8397062843410543e+00 0 0 0
272 1 1.4526879085334359e+00 2.6761671031614910e+01 1.4741987719082683e+00 0 0 0
753 1 2.9385387414109343e+00 2.8400252370106664e+01 2.6448699810436409e+00 0 0 0
303 1 1.0917952627716450e-01 2.8426624347446598e+01 2.6010814694938400e+00 0 0 0
722 1 4.4190189704996952e+00 2.7009520517123939e+01 1.3518501657511488e+00 0 0 0
1203 1 5.8611121238171284e+00 2.8464286564032601e+01 2.8119158886413684e+00 0 0 0
1172 1 7.3650334375516451e+00 2.7185242805315276e+01 1.3406089765565985e+00 0 0 0
1653 1 8.7417855637080120e+00 2.8475884471443823e+01 2.8365368242327609e+00 0 0 0
1622 1 1.0231925306003367e+01 2.7111384614160521e+01 1.3937878911054424e+00 0 0 0
2103 1 1.1568594855294876e+01 2.8593703750017173e+01 2.8389760360346199e+00 0 0 0
2072 1 1.3083241518327265e+01 2.7165487920585260e+01 1.3661738540302839e+00 0 0 0
2553 1 1.4444219713664600e+01 2.8495631129709302e+01 2.8328291303351123e+00 0 0 0
2522 1 1.5879116420821482e+01 2.7175573802664324e+01 1.3355633713973116e+00 0 0 0
2972 1 1.8548706713350171e+01 2.7128687823077694e+01 1.2268108158094047e+00 0 0 0
3003 1 1.7163267145430098e+01 2.8586235356703941e+01 2.8275015730112920e+00 0 0 0
3422 1 2.1471197897879595e+01 2.7125413593046808e+01 1.4417290633168549e+00 0 0 0
3453 1 2.0002383063665565e+01 2.8553661185571357e+01 2.8309801694450356e+00 0 0 0
3451 1 2.0106935507947973e+01 2.8484091026159607e+01 3.3203296696179052e-02 0 0 0
3872 1 2.4222831145772822e+01 2.7240958181844796e+01 1.4298897082410282e+00 0 0 0
3903 1 2.2973861042141394e+01 2.8561674209154276e+01 2.8339505171909787e+00 0 0 0
4322 1 2.7047317651014865e+01 2.7085131354880332e+01 1.3686036080444386e+00 0 0 0
4353 1 2.5807101228410652e+01 2.8530696846563732e+01 2.7155926045002898e+00 0 0 0
4803 1 2.8473359694280777e+01 2.8595994261289711e+01 2.7684436586937520e+00 0 0 0
302 1 1.4079764308369862e+00 2.9800879531169521e+01 1.1133097835110599e+00 0 0 0
783 1 3.0170766916488869e+00 3.1251424935168917e+01 2.7055225275092258e+00 0 0 0
332 1 1.4890665363824045e+00 3.2709032817645323e+01 1.3799579339952270e+00 0 0 0
752 1 4.3590126108478886e+00 2.9898322514571401e+01 1.3265127099528669e+00 0 0 0
1233 1 5.8300235077737748e+00 3.1284249835146351e+01 2.8429919603528804e+00 0 0 0
782 1 4.4813974528529217e+00 3.2767165078407658e+01 1.3779234442575277e+00 0 0 0
1202 1 7.2300879574839483e+00 2.9888719146982311e+01 1.4091121313447905e+00 0 0 0
1683 1 8.7113224959638025e+00 3.1407647484741382e+01 2.7219170476330734e+00 0 0 0
1232 1 7.3638943561244838e+00 3.2814153809244743e+01 1.3870691427855817e+00 0 0 0
1652 1 1.0143297197836921e+01 2.9894183916550485e+01 1.4395633908759733e+00 0 0 0
2133 1 1.1660481512602360e+01 3.1462948860593549e+01 2.8333615499324747e+00 0 0 0
1682 1 1.0095411167881361e+01 3.2821924551069557e+01 1.3046440669901662e+00 0 0 0
2102 1 1.2944453509695425e+01 2.9997268822494103e+01 1.3858208073446359e+00 0 0 0
2132 1 1.3053271877054859e+01 3.2893727237363578e+01 1.2959364287985145e+00 0 0 0
2583 1 1.4374030164520313e+01 3.1345862526714232e+01 2.8211080905767014e+00 0 0 0
2552 1 1.5709360028852318e+01 2.9926735155775678e+01 1.3106879225035217e+00 0 0 0
2582 1 1.5858882318650792e+01 3.2696666588390414e+01 1.3866447737445970e+00 0 0 0
3002 1 1.8520406175765665e+01 3.0011237861734379e+01 1.3955394632365794e+00 0 0 0
3033 1 1.7142660774749839e+01 3.1294195161230718e+01 2.8688816742238421e+00 0 0 0
3032 1 1.8638178690730221e+01 3.2720071066246462e+01 1.3381580495893279e+00 0 0 0
3452 1 2.1426133514906248e+01 2.9914507602743861e+01 1.4463959199127376e+00 0 0 0
3483 1 2.0170247548826591e+01 3.1355299447379860e+01 2.8204780692583773e+00 0 0 0
3482 1 2.1517600456097906e+01 3.2721299095430211e+01 1.4258667614892868e+00 0 0 0
3902 1 2.4288756878823438e+01 2.9892472918155260e+01 1.2999341718922708e+00 0 0 0
3933 1 2.2952673480182568e+01 3.1385510195900732e+01 2.7763615342017687e+00 0 0 0
3932 1 2.4373786226273733e+01 3.2844278438303391e+01 1.3893660839207995e+00 0 0 0
4352 1 2.7108081294702068e+01 3.0036187919408395e+01 1.2989831470050501e+00 0 0 0
4383 1 2.5717580340829070e+01 3.1390355620201284e+01 2.8015577148871151e+00 0 0 0
4380 1 2.7050326771022302e+01 3.2928978131099385e+01 1.3628990116698210e+00 0 0 1
4831 1 2.8484689849052863e+01 3.1388641420741795e+01 2.5310563295022348e-05 0 0 0
813 1 2.9547334709511865e+00 3.4096889013341169e+01 2.8118625637614905e+00 0 0 0
362 1 1.4720920763327909e+00 3.5558344193181924e+01 1.5196080881824077e+00 0 0 0
1263 1 5.9147128887188849e+00 3.4274583023623080e+01 2.7899056358365337e+00 0 0 0
812 1 4.4000983344697797e+00 3.5385793191893654e+01 1.2796313333991856e+00 0 0 0
1713 1 8.6970872624118059e+00 3.4185524594194263e+01 2.7743205354537652e+00 0 0 0
1262 1 7.3059776162023944e+00 3.5531304278083766e+01 1.2444299014409177e+00 0 0 0
2163 1 1.1479591966247497e+01 3.4133675817076977e+01 2.8096068873323863e+00 0 0 0
1712 1 1.0211350014980994e+01 3.5577399045397868e+01 1.2137866310385379e+00 0 0 0
2162 1 1.3076223560905746e+01 3.5541202727551436e+01 1.4119227144899540e+00 0 0 0
2613 1 1.4556635101508920e+01 3.4025774701701138e+01 2.9176306310334597e+00 0 0 0
2612 1 1.5781748789075108e+01 3.5662054527953188e+01 1.3188657174853766e+00 0 0 0
3063 1 1.7182395345331720e+01 3.4141294687140672e+01 2.8874793476118610e+00 0 0 0
3062 1 1.8692705791780693e+01 3.5534002268732976e+01 1.4131804856409815e+00 0 0 0
3061 1 1.7184504667565307e+01 3.4279393393941888e+01 1.5979315057784049e-02 0 0 0
3513 1 2.0088049035538745e+01 3.4175485857488312e+01 2.8277767837316725e+00 0 0 0
3512 1 2.1504252523117039e+01 3.5748449676179149e+01 1.3556570091405802e+00 0 0 0
3963 1 2.2856176896295761e+01 3.4232467782957102e+01 2.7402891762558501e+00 0 0 0
3962 1 2.4255805679834058e+01 3.5531589196439214e+01 1.3887624818809341e+00 0 0 0
4412 1 2.7172863461531275e+01 3.5604767861291492e+01 1.4116704283262418e+00 0 0 0
4413 1 2.5711856033444235e+01 3.4383999741243628e+01 2.8392259079129465e+00 0 0 0
392 1 1.4325532658557039e+00 3.8349612743439394e+01 1.3940638102655258e+00 0 0 0
843 1 2.9757191492479391e+00 3.6906699677797036e+01 2.8210688626836991e+00 0 0 0
842 1 4.3595253059496395e+00 3.8387217807577372e+01 1.3446083864738214e+00 0 0 0
1293 1 5.8277579513047328e+00 3.6964805376054429e+01 2.7720942958625563e+00 0 0 0
1292 1 7.3093124509679210e+00 3.8441726432871420e+01 1.1951442257170364e+00 0 0 0
1743 1 8.7097548010931600e+00 3.6935646899658451e+01 2.6513681642655120e+00 0 0 0
1742 1 1.0096958792358601e+01 3.8459465016455852e+01 1.3249434350760241e+00 0 0 0
2193 1 1.1546289171245942e+01 3.7012380408987212e+01 2.7389872258182910e+00 0 0 0
2192 1 1.2959727959068651e+01 3.8451046715957048e+01 1.3920574978101958e+00 0 0 0
2643 1 1.4331286023390909e+01 3.6901875358493669e+01 2.7668639807883553e+00 0 0 0
2642 1 1.5834500694505506e+01 3.8471675370778740e+01 1.3862953639316373e+00 0 0 0
3092 1 1.8676850672080718e+01 3.8357709289444699e+01 1.2960684275465921e+00 0 0 0
3093 1 1.7280753015813392e+01 3.7063151905145844e+01 2.8337486622907107e+00 0 0 0
3543 1 2.0052989896467828e+01 3.7007594220335136e+01 2.8739027211489931e+00 0 0 0
3542 1 2.1501266340902749e+01 3.8466569375175041e+01 1.3834424278295709e+00 0 0 0
3992 1 2.4367589507650880e+01 3.8609485037928039e+01 1.3102729166237936e+00 0 0 0
3993 1 2.2901529018982700e+01 3.6998022909395644e+01 2.8954174250667748e+00 0 0 0
4442 1 2.7207751268019763e+01 3.8597694421503491e+01 1.2876988792866184e+00 0 0 0
4443 1 2.5750294965545731e+01 3.7273522460895151e+01 2.8488637684044904e+00 0 0 0
4893 1 2.8535387602758281e+01 3.7054307079604953e+01 2.8916667202578834e+00 0 0 0
453 1 3.0016996876496886e+00 4.2769702422297726e+01 2.7077652772531811e+00 0 -1 0
422 1 1.5261507649419401e+00 4.1309012288128159e+01 1.2758008066678173e+00 0 0 0
873 1 3.0219280534009294e+00 3.9713893465970656e+01 2.8148419557468176e+00 0 0 0
3 1 6.1395562453514962e-02 4.2678575639780732e+01 2.7315260852925598e+00 0 -1 0
423 1 6.6255817126518235e-02 3.9877071629365730e+01 2.6991200021217017e+00 0 0 0
1322 1 5.9070286444678413e+00 4.2748154916246861e+01 2.7455446863998745e+00 0 0 0
872 1 4.3411266891800251e+00 4.1509359397275944e+01 1.3490719850205650e+00 0 0 0
1323 1 5.8408052135127511e+00 3.9890929241396961e+01 2.7192428607360233e+00 0 0 0
1321 1 5.7495488872152780e+00 4.0038580752602613e+01 1.9784180896799342e-02 0 0 0
1353 1 8.6442637299666902e+00 4.2801618437767829e+01 2.7687130862763070e+00 0 -1 0
1773 1 8.7784223253672859e+00 3.9935057000579334e+01 2.7183353539652373e+00 0 0 0
1771 1 7.3273404982191854e+00 4.1315590239281107e+01 1.3403159537069809e+00 0 0 0
1772 1 1.0119961523326511e+01 4.1543237515095072e+01 1.4020629811750942e+00 0 0 0
2223 1 1.1589341364081324e+01 3.9811535715216877e+01 2.6544256859419066e+00 0 0 0
2222 1 1.2965355099694641e+01 4.1318413882707944e+01 1.2832913739918348e+00 0 0 0
2673 1 1.4439854252089699e+01 4.0020830827110956e+01 2.7730841973466873e+00 0 0 0
2672 1 1.5856055548024150e+01 4.1461896428613329e+01 1.2943266834013265e+00 0 0 0
3122 1 1.8556903626508596e+01 4.1353846140141641e+01 1.1578521774909301e+00 0 0 0
3123 1 1.7212024412583769e+01 3.9881173938885738e+01 2.6835281824792747e+00 0 0 0
3573 1 1.9834117106134883e+01 4.0012610491800913e+01 2.7087865592240057e+00 0 0 0
3572 1 2.1439289897047363e+01 4.1451084690971243e+01 1.4112534589178227e+00 0 0 0
4022 1 2.4238283890248521e+01 4.1395149155259006e+01 1.4381509728336788e+00 0 0 0
4023 1 2.2876759096179693e+01 3.9939730247449120e+01 2.7492857141285647e+00 0 0 0
4471 1 2.5756822497173367e+01 4.0085429105948919e+01 6.3364820529230315e-03 0 0 0
4472 1 2.7067355345776075e+01 4.1500728969988970e+01 1.4184843487119485e+00 0 0 0
4473 1 2.5757879615234707e+01 3.9890721322677834e+01 2.7136676154491135e+00 0 0 0
4923 1 2.8508283661702571e+01 3.9978683065230996e+01 2.7494200145531718e+00 0 0 0
4503 1 2.8536309991755370e+01 4.2820379325742898e+01 2.8437546603850081e+00 0 -1 0
4 1 1.5067918718846796e+00 1.3342435919413353e+00 4.1105762137779260e+00 0 0 0
454 1 2.8912030085812255e+00 2.8414298606072199e+00 5.2976027922301387e+00 0 0 0
455 1 3.0032711489070265e+00 1.5959937527931345e-02 5.4876412768538749e+00 0 0 0
35 1 1.0961905699799126e-03 2.7658519580285748e+00 5.5659881329079210e+00 0 0 0
903 1 4.5289225444953276e+00 1.3225325217946620e+00 4.1484001108329336e+00 0 0 0
935 1 5.7204805180115290e+00 3.1070997214549383e+00 5.7164682706420180e+00 0 0 0
904 1 7.3575256728551670e+00 1.4277968632417217e+00 4.2076681960931728e+00 0 0 0
1385 1 8.8000913880767087e+00 2.9274730229756254e+00 5.4787488323273683e+00 0 0 0
1355 1 8.8748400062903396e+00 1.0027186528625265e-01 5.6484678364401937e+00 0 0 0
1354 1 1.0110713608763975e+01 1.5091225157777384e+00 4.1466218258562897e+00 0 0 0
1835 1 1.1671865219979269e+01 2.8990572340202632e+00 5.5644674333491118e+00 0 0 0
1805 1 1.1550275908593306e+01 8.4758074496817798e-03 5.5934294846157790e+00 0 0 0
1804 1 1.3052547477586169e+01 1.5453663624676428e+00 4.1731010799583403e+00 0 0 0
2285 1 1.4416461395277825e+01 2.8101984486661724e+00 5.6146916665802991e+00 0 0 0
2255 1 1.4416463136506513e+01 2.1518024957775838e-02 5.5483720680777076e+00 0 0 0
2254 1 1.5999045357207606e+01 1.4075276577751736e+00 4.1920218736833723e+00 0 0 0
2704 1 1.8661753745302121e+01 1.4885200846567279e+00 4.3485850414060563e+00 0 0 0
2735 1 1.7332327457606674e+01 2.9510326256575943e+00 5.7226879611513821e+00 0 0 0
3185 1 2.0198971946282342e+01 3.0063229958835453e+00 5.6998674057197727e+00 0 0 0
3154 1 2.1363999515522984e+01 1.4411307751112343e+00 4.2064141292176433e+00 0 0 0
3604 1 2.4386934889799903e+01 1.4590203895517837e+00 4.2943572200009577e+00 0 0 0
3635 1 2.2951315637154263e+01 2.9761758731832475e+00 5.7992576159873668e+00 0 0 0
3605 1 2.3050235692242815e+01 1.9617357276764835e-02 5.4871940722868571e+00 0 0 0
4054 1 2.7157611440727049e+01 1.4775307797557744e+00 4.2479900801619230e+00 0 0 0
4085 1 2.5743967856995464e+01 2.9407875234732543e+00 5.6768279019123042e+00 0 0 0
4535 1 2.8475037135666483e+01 2.8736986011340311e+00 5.8847543825497333e+00 0 0 0
65 1 2.2726148916400449e-01 5.8244437916039340e+00 5.5546139436994046e+00 0 0 0
34 1 1.5170278299625857e+00 4.3897916101285199e+00 4.0740583046077301e+00 0 0 0
515 1 2.9595470771384527e+00 5.8719931363387445e+00 5.6546335001502337e+00 0 0 0
484 1 4.2983325827581007e+00 4.3649940962263925e+00 4.0716838171397258e+00 0 0 0
965 1 5.7411386969345051e+00 5.7844038391693671e+00 5.5288917792793013e+00 0 0 0
934 1 7.2117628584808537e+00 4.3689355892696415e+00 4.1989785821199526e+00 0 0 0
1415 1 8.6111016799372031e+00 5.9007871485219230e+00 5.7450394662281985e+00 0 0 0
1384 1 1.0280794458610721e+01 4.3750754232549554e+00 4.2444828951280611e+00 0 0 0
1865 1 1.1630952644800271e+01 5.8734943201008871e+00 5.5458630817574495e+00 0 0 0
1834 1 1.3047285484673550e+01 4.4562566128555092e+00 4.2104617894451097e+00 0 0 0
2315 1 1.4393927332651002e+01 5.8667579409872808e+00 5.6616909785703706e+00 0 0 0
2284 1 1.5919095678926080e+01 4.3688834772738643e+00 4.3662560105731965e+00 0 0 0
2734 1 1.8866790972587548e+01 4.4847333216551499e+00 4.3906234185272828e+00 0 0 0
2765 1 1.7271710253930099e+01 5.9074370887940733e+00 5.7374911155238282e+00 0 0 0
3215 1 2.0238025508540847e+01 5.8398520634449840e+00 5.6771580299960123e+00 0 0 0