LAMMPS data file via write_data, version 7 Aug 2019, timestep = 29000

9000 atoms
1 atom types

-1.2454929418246455e-04 5.7106124549294186e+01 xlo xhi
-9.3411970636848420e-05 4.2829593411970642e+01 ylo yhi
-9.3411970636848420e-05 4.2829593411970642e+01 zlo zhi

Masses

1 56

Atoms # atomic

2 1 1.3680410931692892e+00 1.2871300492285553e+00 1.5370677451284098e+00 0 0 0
483 1 3.0392882544177158e+00 2.8306239425259796e+00 2.9244926541934704e+00 0 0 0
481 1 2.8733172333522408e+00 2.7931936889613369e+00 4.7178858845782656e-02 0 0 0
31 1 6.1319144215013104e-02 2.8283992495793560e+00 9.9345415247608954e-02 0 0 0
33 1 1.5097659770799701e-01 2.7458063200293705e+00 2.9212821115936225e+00 0 0 0
452 1 4.3204704352423473e+00 1.4068216802163291e+00 1.4601231615795336e+00 0 0 0
933 1 5.8001012705567474e+00 2.8999916273229513e+00 2.8828111340485676e+00 0 0 0
931 1 5.6716184893951063e+00 2.8543955033774542e+00 9.2082304816585525e-02 0 0 0
903 1 5.7767549088398695e+00 3.5059742623976271e-02 2.9203545148709447e+00 0 0 0
902 1 7.1221838252824510e+00 1.3240301792462035e+00 1.4351513824864999e+00 0 0 0
1383 1 8.4794951793451681e+00 2.9204357714076807e+00 2.8107797596432436e+00 0 0 0
1381 1 8.5370860309897889e+00 2.8412386337566939e+00 1.2154408039095171e-01 0 0 0
1353 1 8.6252343982501980e+00 7.0156634278939964e-02 2.9913774729824021e+00 0 0 0
1352 1 9.9157800087052799e+00 1.4117997570449170e+00 1.4421253502678704e+00 0 0 0
1833 1 1.1426093307118101e+01 2.7942511353169750e+00 2.7690980598586972e+00 0 0 0
1831 1 1.1423052721987213e+01 2.7869286555423214e+00 1.3776194155513022e-01 0 0 0
1803 1 1.1439313791893865e+01 1.4115137888728574e-01 2.9498983275577335e+00 0 0 0
1802 1 1.2815524892823904e+01 1.4482992655658160e+00 1.4971005929244992e+00 0 0 0
2283 1 1.4336504352166516e+01 2.8880387609100389e+00 2.8049294404356355e+00 0 0 0
2252 1 1.5597018018160968e+01 1.4439700513137794e+00 1.4279921245752549e+00 0 0 0
2281 1 1.4229281001364646e+01 2.7337356441226044e+00 9.7056938322034728e-02 0 0 0
2251 1 1.3986993038083730e+01 6.1654950444950167e-02 2.1234487583399186e-04 0 0 0
2702 1 1.8484738975125012e+01 1.4852884091997578e+00 1.5796874399537886e+00 0 0 0
2733 1 1.7109289431381121e+01 2.8840707029486712e+00 2.8620768056374728e+00 0 0 0
2703 1 1.7086836828859507e+01 4.5960464186360656e-02 2.8219188031679057e+00 0 0 0
2731 1 1.7109720574339338e+01 2.8749440585775958e+00 1.3849224635862803e-01 0 0 0
3183 1 1.9852713449803886e+01 2.9676000286592026e+00 2.8400180862033007e+00 0 0 0
3152 1 2.1373381209300391e+01 1.5351939296348964e+00 1.4346201333169182e+00 0 0 0
3181 1 1.9907570770205034e+01 2.9077684427329888e+00 1.0364832549782457e-01 0 0 0
3153 1 1.9924621532038973e+01 5.7433286262121068e-02 2.7518788380284733e+00 0 0 0
3151 1 1.9893199967397774e+01 5.4374276383908965e-03 1.1213470136933956e-01 0 0 0
3602 1 2.4161908278784534e+01 1.5654987086904311e+00 1.3993593532050170e+00 0 0 0
3633 1 2.2775281953693838e+01 2.9558521393719679e+00 2.9263136085996897e+00 0 0 0
3601 1 2.2699041303009547e+01 5.7260021652523529e-02 2.7369468136087136e-02 0 0 0
3603 1 2.2643180931007038e+01 1.3946102323571252e-01 2.7543902025521687e+00 0 0 0
4052 1 2.6957985408624644e+01 1.5474564115360325e+00 1.3541012365911407e+00 0 0 0
4083 1 2.5479314369028771e+01 2.8408061595417915e+00 2.8714492857837000e+00 0 0 0
4533 1 2.8325249600863334e+01 3.0118159267534885e+00 2.8316256016943697e+00 0 0 0
4501 1 2.8335083473236811e+01 1.4745534003976293e-01 1.4765539861777199e-02 0 0 0
4531 1 2.8460204447208508e+01 3.0288541926410217e+00 2.0390070524648883e-02 0 0 0
4503 1 2.8458114216116591e+01 1.3823557153313829e-01 2.8241266832161935e+00 0 0 0
32 1 1.6151358786228818e+00 4.1987078354481691e+00 1.4919201773462993e+00 0 0 0
513 1 2.9061228442467693e+00 5.6805674721787067e+00 2.8969718100276696e+00 0 0 0
511 1 2.9111733670012399e+00 5.6866718836254693e+00 3.0774432409193148e-01 0 0 0
61 1 1.0675846708389056e-01 5.6921734098565713e+00 1.4714103255646419e-01 0 0 0
63 1 5.6738787425803856e-02 5.6401668506013296e+00 2.9587832330271553e+00 0 0 0
482 1 4.3057394852009834e+00 4.3912542390457494e+00 1.4548868785163758e+00 0 0 0
963 1 5.8218861748313042e+00 5.7618691218690730e+00 2.9147247750764484e+00 0 0 0
961 1 5.8883978677601885e+00 5.6577221084291969e+00 8.0291416869817445e-02 0 0 0
932 1 7.2513552983971303e+00 4.2993162364142758e+00 1.4054187801088562e+00 0 0 0
1413 1 8.5403315214631039e+00 5.7508867202416845e+00 2.9023585324105596e+00 0 0 0
1411 1 8.5516016202087943e+00 5.6538182145095934e+00 1.0197103388277973e-02 0 0 0
1382 1 1.0027494392673713e+01 4.3780813837438375e+00 1.4553450699857076e+00 0 0 0
1863 1 1.1402501457612987e+01 5.6788128715165502e+00 2.8262013472368799e+00 0 0 0
1832 1 1.2809046870200667e+01 4.2907477868660084e+00 1.5793236454469601e+00 0 0 0
2313 1 1.4088914681092394e+01 5.6880882343136259e+00 2.9178137282978414e+00 0 0 0
2282 1 1.5583148627214111e+01 4.2808648707470951e+00 1.5412103473923460e+00 0 0 0
2311 1 1.4129491645975378e+01 5.7183542325998697e+00 6.1938236881552036e-04 0 0 0
2732 1 1.8453589282895344e+01 4.3435130765688861e+00 1.4769270904301535e+00 0 0 0
2763 1 1.6976036195251304e+01 5.5683474890382874e+00 2.9271101936497415e+00 0 0 0
2761 1 1.7049474339513921e+01 5.5314560882058306e+00 8.4075115577119275e-02 0 0 0
3213 1 1.9870073725881753e+01 5.6676974403748330e+00 2.9778271196190524e+00 0 0 0
3182 1 2.1223545560868210e+01 4.3983231655656745e+00 1.4461729285197966e+00 0 0 0
3632 1 2.4060358365370071e+01 4.3664719636893254e+00 1.3503554197901593e+00 0 0 0
3663 1 2.2608764447202184e+01 5.6162735702611943e+00 2.8955841856333699e+00 0 0 0
4082 1 2.6906126108559132e+01 4.3628569558605435e+00 1.3918873878271081e+00 0 0 0
4113 1 2.5420525929816986e+01 5.6246897998114322e+00 2.8347987060618864e+00 0 0 0
4563 1 2.8427730590474535e+01 5.7542318836233886e+00 2.8705634439850947e+00 0 0 0
62 1 1.4113587629864397e+00 7.1704218912063755e+00 1.5730428735519717e+00 0 0 0
543 1 2.8424873391328167e+00 8.5212840002822450e+00 3.0902176536781290e+00 0 0 0
541 1 2.9001057415956715e+00 8.5627576335044697e+00 9.1000106845141482e-02 0 0 0
92 1 1.3773553669659913e+00 9.8007476813915719e+00 1.4630380330894022e+00 0 0 0
512 1 4.3504209068463533e+00 7.1200797277606105e+00 1.6223461316694858e+00 0 0 0
993 1 5.7121663782259207e+00 8.4922946675358855e+00 2.9766213488948825e+00 0 0 0
991 1 5.7006380551847746e+00 8.5240429367831680e+00 2.1267354753346724e-02 0 0 0
962 1 7.2124584529019442e+00 7.0943482865309404e+00 1.4289139139749725e+00 0 0 0
1443 1 8.5478570886522149e+00 8.5550471225539386e+00 2.8469757443414654e+00 0 0 0
1412 1 9.9088883844864259e+00 6.9983037636028254e+00 1.4760085659537756e+00 0 0 0
1893 1 1.1350734398056336e+01 8.5017283143107516e+00 2.9811247974214861e+00 0 0 0
1442 1 9.9310046371612160e+00 9.8422057442780080e+00 1.4582343792418828e+00 0 0 0
1891 1 1.1193645000070889e+01 8.5414323963280285e+00 1.0208773004783817e-01 0 0 0
1862 1 1.2814080806390125e+01 7.2031269263360249e+00 1.4763251304015943e+00 0 0 0
2343 1 1.4143454654969940e+01 8.5586858611421608e+00 2.8813879271620033e+00 0 0 0
2312 1 1.5478491527883932e+01 7.0699238649266043e+00 1.6002556647355570e+00 0 0 0
2762 1 1.8378579519965371e+01 6.9984086648260400e+00 1.4901938147001925e+00 0 0 0
2793 1 1.7015366683714511e+01 8.5269979005808594e+00 2.7782004506691131e+00 0 0 0
2791 1 1.7060428538130086e+01 8.5584210243145122e+00 3.3178689514860159e-02 0 0 0
3212 1 2.1203911776932980e+01 7.1151577939781490e+00 1.3497168036333553e+00 0 0 0
3243 1 1.9893858937961252e+01 8.5467151078498294e+00 2.7069758993760447e+00 0 0 0
3241 1 1.9788713930018066e+01 8.4338592920948336e+00 2.7997075780987757e-02 0 0 0
3662 1 2.4061193509019763e+01 7.0428952313558186e+00 1.4005731391410041e+00 0 0 0
3693 1 2.2760720534761763e+01 8.4633536255172821e+00 2.8142232362939534e+00 0 0 0
4112 1 2.6958604868430285e+01 7.1594678381439296e+00 1.3421573782112828e+00 0 0 0
4143 1 2.5457934488969361e+01 8.5329300310721745e+00 2.8439116471979409e+00 0 0 0
4141 1 2.5506147157540674e+01 8.6102938594776344e+00 3.2674701059605127e-03 0 0 0
4591 1 2.8513653171679490e+01 8.5723942957828481e+00 1.2420924930395927e-02 0 0 0
4593 1 2.8384331838283934e+01 8.5743038576541597e+00 2.8832279756950361e+00 0 0 0
573 1 2.8836113895147131e+00 1.1360048737899932e+01 3.1174494053038462e+00 0 0 0
122 1 1.5342378063690800e+00 1.2602604567147766e+01 1.6740223702748847e+00 0 0 0
571 1 2.8494925829826050e+00 1.1284437845234438e+01 1.8203593689126166e-01 0 0 0
121 1 4.5743623719083359e-02 1.1324749714577642e+01 1.3172995126796736e-02 0 0 0
542 1 4.2712822728069222e+00 9.9746790114100712e+00 1.5929290042539817e+00 0 0 0
1023 1 5.7002844212670114e+00 1.1336585024905563e+01 2.9653448760543966e+00 0 0 0
572 1 4.1642163997535127e+00 1.2894190564300827e+01 1.4896658185825391e+00 0 0 0
1021 1 5.5235881386821868e+00 1.1338032003068840e+01 1.4489275589933110e-02 0 0 0
992 1 7.0416428239427304e+00 9.8886526249575422e+00 1.5103142427600154e+00 0 0 0
1473 1 8.4025774786041669e+00 1.1196114607215497e+01 2.9250473053290031e+00 0 0 0
1022 1 7.0589923638010763e+00 1.2712296858659043e+01 1.6147287250454869e+00 0 0 0
1923 1 1.1379751753945307e+01 1.1264826485673550e+01 2.8809523756061797e+00 0 0 0
1472 1 9.8607381555470006e+00 1.2697755191792217e+01 1.5567797513028356e+00 0 0 0
1892 1 1.2686911651245081e+01 9.9015003227612350e+00 1.4264153730640294e+00 0 0 0
1921 1 1.1391267614247520e+01 1.1382556035754737e+01 7.3316997510941118e-02 0 0 0
2342 1 1.5483832620956687e+01 9.9570727126031020e+00 1.4354734178529369e+00 0 0 0
1922 1 1.2799736293349573e+01 1.2656816007479836e+01 1.3250690428275316e+00 0 0 0
2373 1 1.4176717814779879e+01 1.1268556817477567e+01 2.8939584701901238e+00 0 0 0
2372 1 1.5675145475269661e+01 1.2696083650957831e+01 1.5981671963252262e+00 0 0 0
2371 1 1.4191117352712780e+01 1.1355540856732391e+01 8.9423120423633186e-03 0 0 0
2792 1 1.8582468720221215e+01 9.9559399853896355e+00 1.3088216859333872e+00 0 0 0
2823 1 1.7026613276859539e+01 1.1218353981121759e+01 2.9695392181884546e+00 0 0 0
2822 1 1.8468062250740640e+01 1.2845222726960019e+01 1.4768462384725030e+00 0 0 0
2821 1 1.7021361962369266e+01 1.1461441630594218e+01 3.1658649273223351e-02 0 0 0
3242 1 2.1354042878807672e+01 9.9344950769658134e+00 1.4005128206929418e+00 0 0 0
3273 1 1.9851369735130181e+01 1.1212720296543853e+01 2.8695321372060549e+00 0 0 0
3272 1 2.1433922957976950e+01 1.2781038041811424e+01 1.5792023608709937e+00 0 0 0
3271 1 2.0020021751971299e+01 1.1370776527925576e+01 3.5306458686266598e-02 0 0 0
3692 1 2.4151429536033977e+01 9.9565387312960052e+00 1.3022491089768666e+00 0 0 0
3723 1 2.2677980011000457e+01 1.1322791239068911e+01 2.9921613892876877e+00 0 0 0
3722 1 2.4259148965152079e+01 1.2864275416166397e+01 1.4747363137916678e+00 0 0 0
3721 1 2.2693936371032514e+01 1.1376419324263203e+01 1.7274649507541540e-02 0 0 0
4142 1 2.6941350372637494e+01 9.8849792118671811e+00 1.3975672245257578e+00 0 0 0
4173 1 2.5580928537726816e+01 1.1291979331299157e+01 2.8991371171830651e+00 0 0 0
4172 1 2.7067295439977769e+01 1.2757120020791454e+01 1.6189153963836216e+00 0 0 0
4171 1 2.5591709357743987e+01 1.1409391946520158e+01 5.3727248678026324e-03 0 0 0
4621 1 2.8364885473103755e+01 1.1241504408708648e+01 4.7136669025482421e-02 0 0 0
4623 1 2.8364537503617701e+01 1.1183806987191256e+01 2.9026064554171040e+00 0 0 0
603 1 2.9766990669759950e+00 1.4319554013795333e+01 3.0428669858409148e+00 0 0 0
152 1 1.4159960397510598e+00 1.5498265273135873e+01 1.5796884106479061e+00 0 0 0
601 1 2.8307410496381613e+00 1.4159673103078466e+01 6.6029835029673301e-02 0 0 0
153 1 2.4053552633635261e-02 1.4162197663160290e+01 3.0772299817927400e+00 0 0 0
151 1 5.9895481654751732e-02 1.3962488645925553e+01 2.5212239151928609e-02 0 0 0
1053 1 5.6517739485956531e+00 1.4104244815989526e+01 2.8845133418728417e+00 0 0 0
602 1 4.2077515481056897e+00 1.5592706914242420e+01 1.5132051739437238e+00 0 0 0
1051 1 5.6069815226345900e+00 1.4218454197040948e+01 5.7923279198118412e-02 0 0 0
1503 1 8.4287603778270110e+00 1.4228993700094440e+01 2.8424674730632553e+00 0 0 0
1052 1 7.1221493272668024e+00 1.5581967358509898e+01 1.5735160277668314e+00 0 0 0
1501 1 8.4520006453453522e+00 1.4198306566115299e+01 4.4925119742752984e-02 0 0 0
1953 1 1.1453954074520937e+01 1.4172338350468591e+01 2.9943476602845820e+00 0 0 0
1502 1 9.8630201409718516e+00 1.5510400157215299e+01 1.5799788504762542e+00 0 0 0
1951 1 1.1332798977672009e+01 1.4255564583051328e+01 1.2845917630688442e-01 0 0 0
1952 1 1.2758412835478053e+01 1.5545502969798985e+01 1.6507179336970421e+00 0 0 0
2403 1 1.4263043556975900e+01 1.4263588912172867e+01 3.0841809387017229e+00 0 0 0
2402 1 1.5690977516033875e+01 1.5485750084774313e+01 1.5917914666523356e+00 0 0 0
2401 1 1.4186034285768256e+01 1.4124692529556084e+01 1.2500802022292895e-01 0 0 0
2853 1 1.7094047292480305e+01 1.4137898285526585e+01 3.0301991272567439e+00 0 0 0
2852 1 1.8559340208215598e+01 1.5593647842195075e+01 1.5741397901551448e+00 0 0 0
2851 1 1.7009706015395530e+01 1.4136456346611102e+01 3.6912294721293121e-02 0 0 0
3303 1 1.9801150869057530e+01 1.4138700524926936e+01 2.9181735698218452e+00 0 0 0
3302 1 2.1271878541211443e+01 1.5639328395798572e+01 1.5027713807933496e+00 0 0 0
3301 1 1.9961325204008656e+01 1.4097623134636338e+01 1.0449876645405516e-01 0 0 0
3753 1 2.2752748982868830e+01 1.4182051615931474e+01 2.8436058493638963e+00 0 0 0
3752 1 2.4209541337812652e+01 1.5649480714214263e+01 1.5457740950228984e+00 0 0 0
3751 1 2.2817781938904204e+01 1.4279753838249279e+01 7.2224304055758637e-02 0 0 0
4203 1 2.5520370165268311e+01 1.4108519796342248e+01 2.9331964017315015e+00 0 0 0
4202 1 2.7165628788804572e+01 1.5536136034865095e+01 1.6696490789218688e+00 0 0 0
4201 1 2.5730166276309383e+01 1.4339213794418503e+01 1.1380628927374287e-01 0 0 0
4651 1 2.8486153129510992e+01 1.4063194241315573e+01 1.5612773192048804e-01 0 0 0
4653 1 2.8491210598361121e+01 1.4116413470253471e+01 3.0433823753738447e+00 0 0 0
183 1 2.2591784693191980e-02 1.7014198864479226e+01 2.8652617287566562e+00 0 0 0
182 1 1.4573231771955524e+00 1.8496447089827544e+01 1.5704250223933001e+00 0 0 0
633 1 2.7317246045230950e+00 1.7034025782708486e+01 3.1643778451177806e+00 0 0 0
631 1 2.7481186166420910e+00 1.7075648847113662e+01 1.1317060756818767e-01 0 0 0
181 1 2.8997699056592181e-02 1.6969620395054811e+01 8.9440314055773490e-02 0 0 0
632 1 4.1052842364727837e+00 1.8509886257843196e+01 1.6355268713454336e+00 0 0 0
1083 1 5.6602364983939557e+00 1.7099369821923304e+01 3.1684113345667351e+00 0 0 0
1081 1 5.5673781714561255e+00 1.7023997686286286e+01 2.1350296123140594e-01 0 0 0
1082 1 7.0666483136459162e+00 1.8377597304030328e+01 1.5295302563775703e+00 0 0 0
1533 1 8.6325035018882303e+00 1.7142200615303697e+01 3.0536609070465337e+00 0 0 0
1563 1 8.5230580561337366e+00 1.9749869164248427e+01 2.9389946047084474e+00 0 0 0
1531 1 8.4262033068713897e+00 1.6980959160688332e+01 1.0371767459758383e-01 0 0 0
1532 1 9.8262522532789358e+00 1.8425072254529301e+01 1.5878673668708729e+00 0 0 0
1983 1 1.1307999752872314e+01 1.7000084879657539e+01 2.9968671956580515e+00 0 0 0
1981 1 1.1307270476434271e+01 1.6997314716049772e+01 2.0752699009307404e-01 0 0 0
1982 1 1.2780529406006766e+01 1.8303875932855512e+01 1.6494668867434388e+00 0 0 0
2432 1 1.5606692441402108e+01 1.8498575156343190e+01 1.5246717131258407e+00 0 0 0
2433 1 1.4157685884101834e+01 1.7086898384393315e+01 3.0952844448501708e+00 0 0 0
2431 1 1.4136717614656719e+01 1.7019944831117723e+01 2.1504907058540657e-01 0 0 0
2882 1 1.8506055276551976e+01 1.8474746442778244e+01 1.4673750364722979e+00 0 0 0
2883 1 1.7105049472660411e+01 1.7047420086971353e+01 2.8951040424350962e+00 0 0 0
2881 1 1.7062482587108995e+01 1.7066290717398005e+01 1.4926032353072297e-01 0 0 0
3333 1 1.9787903106028427e+01 1.7020569219515249e+01 3.0677754737573490e+00 0 0 0
3332 1 2.1263050327324166e+01 1.8385797082043901e+01 1.5182786354119491e+00 0 0 0
3331 1 1.9880366894892411e+01 1.6965613291917816e+01 6.5303500200099493e-02 0 0 0
3782 1 2.4293271748352730e+01 1.8458154668645985e+01 1.6060556351442432e+00 0 0 0
3783 1 2.2681729765089429e+01 1.7094536321012178e+01 2.9358016114913874e+00 0 0 0
3781 1 2.2849876470050013e+01 1.7111944471953091e+01 1.9621617798054791e-01 0 0 0
4232 1 2.7096371858930713e+01 1.8429497800073360e+01 1.5261452349216347e+00 0 0 0
4233 1 2.5611812367533890e+01 1.6944766857222525e+01 2.9915380850803737e+00 0 0 0
4231 1 2.5729517492158568e+01 1.7010412409376098e+01 1.9638089878857209e-01 0 0 0
4683 1 2.8475683616763167e+01 1.7040130152869629e+01 2.9080171615723556e+00 0 0 0
663 1 2.6754601850726925e+00 1.9874171845700470e+01 3.0174841598325224e+00 0 0 0
212 1 1.1958579827987734e+00 2.1319809399326481e+01 1.5879983110977478e+00 0 0 0
693 1 2.7413935590380509e+00 2.2755216751088632e+01 2.9234659812138979e+00 0 0 0
661 1 2.7230844331095776e+00 2.0002792883880417e+01 1.0720474110733381e-01 0 0 0
691 1 2.7748541171094563e+00 2.2729782196880798e+01 1.3913231442909538e-01 0 0 0
662 1 4.1548400447690508e+00 2.1223159912788624e+01 1.4724304914552386e+00 0 0 0
1113 1 5.6881277450646426e+00 1.9860710300235301e+01 3.0627300965951059e+00 0 0 0
1143 1 5.6969029648918683e+00 2.2663236254382578e+01 2.9008562098039889e+00 0 0 0
1111 1 5.6122711207071632e+00 1.9850961448841780e+01 1.1583161444512913e-01 0 0 0
1141 1 5.5197535073509236e+00 2.2891192964214703e+01 3.2786178376958941e-01 0 0 0
1112 1 7.1884633377963079e+00 2.1313536130769606e+01 1.6520811342820896e+00 0 0 0
1593 1 8.5840319768155986e+00 2.2805968263736581e+01 2.9495715754952032e+00 0 0 0
1591 1 8.4883189157610683e+00 2.2753317275824795e+01 1.4324954500096121e-01 0 0 0
1561 1 8.3620762495814258e+00 1.9846815966179594e+01 1.3238035651386959e-01 0 0 0
2013 1 1.1338353276757015e+01 1.9840871940454338e+01 2.9617210422810238e+00 0 0 0
1562 1 1.0048049704914716e+01 2.1259167542511804e+01 1.6474589235913137e+00 0 0 0
2043 1 1.1448544120316953e+01 2.2808589432662707e+01 3.0220340595924990e+00 0 0 0
2041 1 1.1325116359535246e+01 2.2836457307132040e+01 1.4710916025803086e-01 0 0 0
2011 1 1.1466890308370417e+01 1.9877189985362545e+01 1.4012859666313632e-01 0 0 0
2012 1 1.2774023392923983e+01 2.1384574784429798e+01 1.6608119587878614e+00 0 0 0
2463 1 1.4083936662959152e+01 1.9960098521518297e+01 3.0372948825701354e+00 0 0 0
2493 1 1.4194883364898441e+01 2.2751827447870781e+01 2.9523975597931371e+00 0 0 0
2462 1 1.5581415232114093e+01 2.1168911478117611e+01 1.5309222273065177e+00 0 0 0
2461 1 1.4104287023723337e+01 1.9860537726354664e+01 1.7793686056680566e-01 0 0 0
2491 1 1.4152068363372576e+01 2.2746062918844494e+01 1.5556858672070684e-01 0 0 0
2912 1 1.8533660010537584e+01 2.1466878156728960e+01 1.5196629542013584e+00 0 0 0
2913 1 1.7168549088700896e+01 1.9954264423962051e+01 2.9701512194479247e+00 0 0 0
2943 1 1.7196626165577122e+01 2.2853441028825443e+01 3.0533415496788145e+00 0 0 0
2911 1 1.7078685124189565e+01 1.9889016926096104e+01 1.8239446421137959e-01 0 0 0
2941 1 1.7127837476293973e+01 2.2720195337278227e+01 1.1796877890896726e-01 0 0 0
3363 1 1.9988417619547036e+01 1.9960375670466995e+01 3.0246990530192948e+00 0 0 0
3393 1 1.9971470480328584e+01 2.2884288893770606e+01 2.9904152925235987e+00 0 0 0
3362 1 2.1435441988556903e+01 2.1412681855091094e+01 1.5846070803517809e+00 0 0 0
3361 1 1.9946760322515569e+01 1.9960965593688805e+01 1.2396672478042364e-01 0 0 0
3391 1 2.0003648722595379e+01 2.2869853966906422e+01 2.5209949400615594e-01 0 0 0
3812 1 2.4297551796889529e+01 2.1401065906042138e+01 1.4957116233682086e+00 0 0 0
3813 1 2.2754598932622155e+01 1.9900236246864232e+01 2.8646659197312250e+00 0 0 0
3843 1 2.2676481718618156e+01 2.2854858105561433e+01 2.9686585286073979e+00 0 0 0
3841 1 2.2726282068769319e+01 2.2792673676002394e+01 7.1720043065192631e-03 0 0 0
4262 1 2.7197135704146614e+01 2.1399691898496926e+01 1.5700499216290804e+00 0 0 0
4263 1 2.5675366452799310e+01 1.9983976813093541e+01 2.8715066370498996e+00 0 0 0
4293 1 2.5678878868955337e+01 2.2863803580959097e+01 2.9279776710233736e+00 0 0 0
4261 1 2.5717887925915544e+01 1.9904508443818369e+01 2.6850974543321898e-01 0 0 0
4291 1 2.5625746752944792e+01 2.2806937068743629e+01 1.3194350748959771e-01 0 0 0
4711 1 2.8492859239388721e+01 1.9885590296340165e+01 1.3183407548568679e-01 0 0 0
4741 1 2.8493084438902596e+01 2.2742782151467601e+01 4.7148311032138110e-02 0 0 0
4743 1 2.8461029058890237e+01 2.2890696269687027e+01 2.9660081906676021e+00 0 0 0
4713 1 2.8483254892193806e+01 1.9836543969825982e+01 3.0141324755229211e+00 0 0 0
242 1 1.3025484820824687e+00 2.4238153121170946e+01 1.4418352743824216e+00 0 0 0
723 1 2.8446120990756993e+00 2.5592474946883723e+01 2.9264837525516869e+00 0 0 0
721 1 2.8176883764262319e+00 2.5760697762525322e+01 8.9835961891311558e-02 0 0 0
273 1 1.2148303744147881e-02 2.5744347054489786e+01 2.8852960501799418e+00 0 0 0
692 1 4.2373801725887805e+00 2.4304161510546944e+01 1.6154174992192520e+00 0 0 0
1173 1 5.7060354385962242e+00 2.5681462265940393e+01 3.0396196905913988e+00 0 0 0
1171 1 5.7625513841317284e+00 2.5773080264406214e+01 2.3919039664835134e-01 0 0 0
1142 1 7.0782344716053096e+00 2.4226986930771005e+01 1.5271709401016180e+00 0 0 0
1623 1 8.5055516808159943e+00 2.5722908187330425e+01 2.9081184950407430e+00 0 0 0
1621 1 8.4158133439576712e+00 2.5813499206529919e+01 2.5147605022230879e-01 0 0 0
1592 1 9.9793082046080315e+00 2.4310952394348877e+01 1.5899673121572173e+00 0 0 0
2073 1 1.1323811909250267e+01 2.5596417270087308e+01 3.0844709085847097e+00 0 0 0
2071 1 1.1348592193836547e+01 2.5824831675277082e+01 1.0422831052625542e-01 0 0 0
2042 1 1.2814163955346839e+01 2.4288319371396312e+01 1.6069298455054282e+00 0 0 0
2492 1 1.5631395654276211e+01 2.4106038457384738e+01 1.6614362093847275e+00 0 0 0
2523 1 1.4222804083490900e+01 2.5701070827621290e+01 3.0468742385071179e+00 0 0 0
2521 1 1.4261110106544095e+01 2.5610055257595608e+01 1.8001138561692490e-01 0 0 0
2942 1 1.8306426461835592e+01 2.4325678489284019e+01 1.6704535310458772e+00 0 0 0
2973 1 1.7090299935190465e+01 2.5717124454476146e+01 2.9235263710025574e+00 0 0 0
2971 1 1.7047874442139118e+01 2.5678593245219066e+01 5.5334981797514768e-02 0 0 0
3423 1 1.9955717260818194e+01 2.5832410712211271e+01 3.0633179071013541e+00 0 0 0
3392 1 2.1441434724995688e+01 2.4296371780522417e+01 1.5823591098796723e+00 0 0 0
3421 1 1.9940227393291082e+01 2.5710036479749647e+01 9.8067308812811602e-02 0 0 0
3842 1 2.4167729563631330e+01 2.4287894267843622e+01 1.7517821604201160e+00 0 0 0
3873 1 2.2776701236655160e+01 2.5753149327170817e+01 3.1814687456079591e+00 0 0 0
3871 1 2.2904141923101985e+01 2.5595570933546487e+01 1.9974972025883045e-01 0 0 0
4292 1 2.7146827440998024e+01 2.4365980773267935e+01 1.5201987367358403e+00 0 0 0
4323 1 2.5653803510398458e+01 2.5798859152791700e+01 3.0605578865176626e+00 0 0 0
4321 1 2.5674950848494568e+01 2.5608081352718326e+01 4.1201861936748935e-03 0 0 0
4773 1 2.8525877298132883e+01 2.5857474058603483e+01 2.9676283727118178e+00 0 0 0
4771 1 2.8535748910075373e+01 2.5651751182117209e+01 6.1952602771013478e-02 0 0 0
272 1 1.4031681913178238e+00 2.7155785110203595e+01 1.4196126358291801e+00 0 0 0
753 1 2.8976354564520554e+00 2.8511521181903262e+01 2.9155839803111814e+00 0 0 0
751 1 2.9651790840194328e+00 2.8700168432191894e+01 2.2518740140478052e-01 0 0 0
303 1 2.3230851720593057e-01 2.8632178453659265e+01 2.9634927813516767e+00 0 0 0
301 1 4.8112700108049467e-04 2.8693040911709979e+01 2.7436739767360718e-02 0 0 0
722 1 4.2371126906418359e+00 2.7150140710531115e+01 1.4603578123493479e+00 0 0 0
1203 1 5.6815312196891012e+00 2.8589254979338442e+01 2.9347722110710954e+00 0 0 0
1201 1 5.6775312670188569e+00 2.8696005860819202e+01 1.5207920625613910e-01 0 0 0
1172 1 7.1314464137618279e+00 2.7371854222994365e+01 1.5629972024313621e+00 0 0 0
1653 1 8.4817593500348067e+00 2.8687378662959610e+01 3.0474166237002462e+00 0 0 0
1651 1 8.5842468349964065e+00 2.8656479257454375e+01 1.3767104752848960e-01 0 0 0
1622 1 1.0002719625560228e+01 2.7104178415138172e+01 1.6568196180915662e+00 0 0 0
2103 1 1.1295590099128484e+01 2.8656485421599911e+01 2.9813644950652169e+00 0 0 0
2101 1 1.1223024238593329e+01 2.8596920831007036e+01 1.8651427276087701e-01 0 0 0
2072 1 1.2800096945945008e+01 2.7089435933694940e+01 1.6175427838374643e+00 0 0 0
2522 1 1.5687481347913222e+01 2.7050167482166156e+01 1.6301644948920979e+00 0 0 0
2553 1 1.4186894798365204e+01 2.8697204179658225e+01 3.0683653701955960e+00 0 0 0
2551 1 1.4278919868517750e+01 2.8627533424020076e+01 1.7723165956136788e-01 0 0 0
2972 1 1.8505318735509395e+01 2.7098890544134299e+01 1.4981280152320746e+00 0 0 0
3003 1 1.7180872405834549e+01 2.8639603003967927e+01 2.9757645389560583e+00 0 0 0
3001 1 1.6966959016607813e+01 2.8538254781395775e+01 2.7009137778066628e-01 0 0 0
3422 1 2.1510570495407826e+01 2.7117156245211707e+01 1.5244068472332208e+00 0 0 0
3453 1 1.9802434603854959e+01 2.8614538323449469e+01 2.9137439477753002e+00 0 0 0
3451 1 1.9915766995974547e+01 2.8616433853939427e+01 1.1026331332117138e-01 0 0 0
3872 1 2.4326293055284047e+01 2.7168027211359593e+01 1.6345039115368121e+00 0 0 0
3903 1 2.2732678138330812e+01 2.8529030522960408e+01 3.0156665782045926e+00 0 0 0
3901 1 2.2913249667199636e+01 2.8615907634329211e+01 1.6184243482625596e-01 0 0 0
4322 1 2.6967028587274132e+01 2.7265420045338260e+01 1.4731701713667662e+00 0 0 0
4353 1 2.5606712440706055e+01 2.8565234013967743e+01 3.0121619324562627e+00 0 0 0
4351 1 2.5534431784020640e+01 2.8596312334272554e+01 7.6109849979673294e-02 0 0 0
4803 1 2.8519430480774027e+01 2.8583694143962060e+01 2.8850507041081759e+00 0 0 0
302 1 1.3696609423152912e+00 3.0128734257079344e+01 1.6146000452926246e+00 0 0 0
783 1 2.9862753529455155e+00 3.1519611217179165e+01 2.9582637405024692e+00 0 0 0
332 1 1.6267447991057873e+00 3.2931064849916503e+01 1.4621479243699322e+00 0 0 0
781 1 2.8086955473348896e+00 3.1521085886272235e+01 3.7448268308224932e-02 0 0 0
333 1 4.2894840823321997e-02 3.1556889520443072e+01 3.0923096644497061e+00 0 0 0
752 1 4.2025750718275718e+00 3.0029780888929420e+01 1.5377469049316017e+00 0 0 0
1233 1 5.7896964538885349e+00 3.1515263206565777e+01 3.0180565445340450e+00 0 0 0
1231 1 5.7196878905317128e+00 3.1487382959448869e+01 2.1615768260737905e-01 0 0 0
1202 1 7.1644204500235373e+00 3.0200448370584024e+01 1.6360537032378244e+00 0 0 0
1683 1 8.5421264859099946e+00 3.1536376392193272e+01 3.0342521769555044e+00 0 0 0
1681 1 8.6609757024840164e+00 3.1481635211494265e+01 6.1657298893160843e-02 0 0 0
1232 1 7.2510649925854977e+00 3.2910598700889345e+01 1.5931285342983104e+00 0 0 0
1652 1 9.9707086441437784e+00 3.0053373556521802e+01 1.5525944676887822e+00 0 0 0
2133 1 1.1494294785308767e+01 3.1393290499863340e+01 3.0096374232035012e+00 0 0 0
1682 1 1.0038123696393557e+01 3.2770755990717497e+01 1.5657208282101476e+00 0 0 0
2102 1 1.2876698697548507e+01 2.9948675213612773e+01 1.6492537262994731e+00 0 0 0
2583 1 1.4203079923475313e+01 3.1594617315806687e+01 2.9774771069117776e+00 0 0 0
2132 1 1.2784899923046725e+01 3.2919880129170423e+01 1.4654944972395323e+00 0 0 0
2552 1 1.5717385187741447e+01 2.9994518434886661e+01 1.5463088160909926e+00 0 0 0
2581 1 1.4249007178426448e+01 3.1436895971036808e+01 1.0593586277953872e-01 0 0 0
2582 1 1.5601426666895138e+01 3.2894080109404825e+01 1.7138649282542326e+00 0 0 0
3002 1 1.8502689554833079e+01 3.0051588754501065e+01 1.4672747025084152e+00 0 0 0
3033 1 1.7118338986829475e+01 3.1512526190797807e+01 2.9210349730135730e+00 0 0 0
3031 1 1.6953940206493211e+01 3.1564608135635776e+01 6.7570633028835286e-02 0 0 0
3032 1 1.8614304960445740e+01 3.2766783854530807e+01 1.5407886736952887e+00 0 0 0
3452 1 2.1304877331644860e+01 2.9925206344074979e+01 1.5857177230561921e+00 0 0 0
3483 1 1.9968041382827508e+01 3.1487753539078486e+01 2.8976016872446198e+00 0 0 0
3481 1 1.9955331282079015e+01 3.1481364338310676e+01 8.5119859347758189e-02 0 0 0
3902 1 2.4197937795469254e+01 3.0016795095688217e+01 1.5273972090102925e+00 0 0 0
3933 1 2.2672564649164507e+01 3.1507034540946815e+01 3.0144492490581114e+00 0 0 0
3932 1 2.4062714896934587e+01 3.2850984266293317e+01 1.4916192893565849e+00 0 0 0
3931 1 2.2662010230033903e+01 3.1418847678384392e+01 1.4275719376213361e-01 0 0 0
4352 1 2.6910070370066531e+01 3.0145652479391799e+01 1.5224615919661633e+00 0 0 0
4383 1 2.5488920675453027e+01 3.1603438671943273e+01 2.9174386419330607e+00 0 0 0
4831 1 2.8462167245953925e+01 3.1556315032755823e+01 9.5001790555437490e-02 0 0 0
4833 1 2.8407294311808553e+01 3.1517324506281806e+01 2.8293815720731561e+00 0 0 0
813 1 3.0143954742537487e+00 3.4424784438631711e+01 2.8590067696269608e+00 0 0 0
362 1 1.7005486842111537e+00 3.5739327995611774e+01 1.3806464008437807e+00 0 0 0
363 1 1.1132859633453845e-01 3.4427658479817460e+01 3.0468809901425780e+00 0 0 0
361 1 8.0990079569360773e-03 3.4372192476092110e+01 3.0800629351973646e-01 0 0 0
782 1 4.4287490410976318e+00 3.2955070933974405e+01 1.4155349857061099e+00 0 0 0
1263 1 5.9097325564266550e+00 3.4413640725597148e+01 2.9535369824104589e+00 0 0 0
812 1 4.4401567325393536e+00 3.5858149507944404e+01 1.4872782283816794e+00 0 0 0
1261 1 5.8921778445162598e+00 3.4306637353677118e+01 4.4213455132481254e-02 0 0 0
1713 1 8.7685541901564630e+00 3.4303857260776262e+01 2.8889583254209028e+00 0 0 0
1262 1 7.3409083622895022e+00 3.5603694740570830e+01 1.5128438171677723e+00 0 0 0
1711 1 8.6587191127419008e+00 3.4307253249980235e+01 3.8276526430941260e-02 0 0 0
2163 1 1.1414246609323211e+01 3.4426665427136413e+01 2.9836436770947938e+00 0 0 0
1712 1 1.0161459742894994e+01 3.5757802930499565e+01 1.4498441388372159e+00 0 0 0
2161 1 1.1491739286505231e+01 3.4362484898730806e+01 6.1827955413112944e-02 0 0 0
2613 1 1.4087316769552618e+01 3.4406031469438325e+01 2.8769126297151191e+00 0 0 0
2162 1 1.2835483373312524e+01 3.5776404110358733e+01 1.5923747921723179e+00 0 0 0
2612 1 1.5565027214153314e+01 3.5734412973888197e+01 1.7626286702430369e+00 0 0 0
2611 1 1.4229872871805071e+01 3.4369198828958574e+01 2.1502365497893924e-01 0 0 0