LAMMPS data file via write_data, version 7 Aug 2019, timestep = 29000

9000 atoms
1 atom types

-1.2454929418246455e-04 5.7106124549294186e+01 xlo xhi
-9.3411970636848420e-05 4.2829593411970642e+01 ylo yhi
-9.3411970636848420e-05 4.2829593411970642e+01 zlo zhi

Masses

1 56

Atoms # atomic

2 1 1.5260955306647086e+00 1.2857294873689109e+00 1.4402017803297158e+00 0 0 0
483 1 2.7957237711504090e+00 2.7091186848052313e+00 3.0005046878346358e+00 0 0 0
481 1 2.6667319012826622e+00 2.9868959602112390e+00 7.9164239151962787e-02 0 0 0
31 1 3.8028834763652611e-02 2.7670215768894284e+00 4.1240144545163393e-02 0 0 0
33 1 1.5828649717338794e-01 2.6483736607634389e+00 2.9728887065775114e+00 0 0 0
452 1 4.1824169367888970e+00 1.4659822428225024e+00 1.4306337981523098e+00 0 0 0
933 1 5.5263009817675206e+00 2.8102796853123886e+00 2.9358793696480485e+00 0 0 0
931 1 5.6403903994276465e+00 2.9212846166315996e+00 2.1917690347045493e-02 0 0 0
902 1 6.9822103083494449e+00 1.4979475054970985e+00 1.3928667947229132e+00 0 0 0
1383 1 8.4209539709634331e+00 2.9862451853719612e+00 2.9680438143318484e+00 0 0 0
1351 1 8.4507988680981878e+00 1.1631424894490922e-01 2.4444219041995160e-01 0 0 0
1352 1 9.7427202144971599e+00 1.4026940824680378e+00 1.4535051888734811e+00 0 0 0
1833 1 1.1107428580676340e+01 2.9533763564230369e+00 2.8591479680058138e+00 0 0 0
1831 1 1.1167075795718873e+01 2.9181450364484287e+00 7.3074507266690748e-03 0 0 0
1802 1 1.2497516628157351e+01 1.3217798740986968e+00 1.2636897727069076e+00 0 0 0
1803 1 1.1207713885814394e+01 6.4815089977443563e-03 2.8204189779595183e+00 0 0 0
2283 1 1.4047631241314233e+01 2.7875334562833003e+00 2.7488041429862653e+00 0 0 0
2252 1 1.5412113632944870e+01 1.2898268119973773e+00 1.3167486370403645e+00 0 0 0
2702 1 1.8267723095512455e+01 1.3469598230551902e+00 1.3368447765276725e+00 0 0 0
2733 1 1.6950210482909803e+01 2.7388361556822116e+00 2.8989801149500480e+00 0 0 0
2731 1 1.6954149829038496e+01 2.7121564332621406e+00 1.2806224409121100e-01 0 0 0
3183 1 1.9719963923687917e+01 2.8530237706348571e+00 2.9282018478390066e+00 0 0 0
3152 1 2.1214573784072623e+01 1.4215366426884806e+00 1.3607578351729415e+00 0 0 0
3602 1 2.4229834768659309e+01 1.3758974037052627e+00 1.3969143744561361e+00 0 0 0
3633 1 2.2706510327327074e+01 2.6376200622821298e+00 2.7823569279670317e+00 0 0 0
3631 1 2.2635118292145624e+01 2.8575688478878147e+00 1.3261800698185422e-01 0 0 0
3601 1 2.2677911382564659e+01 3.3424854170895725e-02 1.0731424772316700e-02 0 0 0
4083 1 2.5580662940685105e+01 2.8487070880950838e+00 2.8087698719497269e+00 0 0 0
4052 1 2.7146747125460664e+01 1.4681732276389472e+00 1.4002901300724118e+00 0 0 0
4051 1 2.5848441225856746e+01 1.1210454957383714e-01 9.6155027786052991e-02 0 0 0
4533 1 2.8407602036857327e+01 2.9258605721222177e+00 2.8681264124687837e+00 0 0 0
32 1 1.2982443763441045e+00 4.2267805616009362e+00 1.4734779955144850e+00 0 0 0
513 1 2.8601267053434949e+00 5.6016249994522802e+00 3.0359834727198689e+00 0 0 0
511 1 2.7645982154078985e+00 5.5767485696313308e+00 2.6818316788164584e-02 0 0 0
61 1 5.9584757517828359e-02 5.5404718872191543e+00 2.5914733720714157e-02 0 0 0
63 1 1.7971725934714469e-01 5.6871165418880247e+00 2.9387477876493393e+00 0 0 0
482 1 4.1653408843704733e+00 4.2478308737563122e+00 1.5160047575263498e+00 0 0 0
963 1 5.7456542296344582e+00 5.7166404238035771e+00 3.0345380215481521e+00 0 0 0
961 1 5.6394130763296983e+00 5.5985557423610066e+00 1.4142864289870680e-01 0 0 0
932 1 6.9413075827150870e+00 4.2646413213057635e+00 1.4558096765639748e+00 0 0 0
1413 1 8.4237313968569865e+00 5.6619801844787894e+00 2.8688204546995375e+00 0 0 0
1382 1 9.8396728617732556e+00 4.4303183871677518e+00 1.4437763528819898e+00 0 0 0
1863 1 1.1225549870910283e+01 5.7082222358175541e+00 2.8696893935817238e+00 0 0 0
1832 1 1.2625541504334949e+01 4.2101680486406972e+00 1.3876458238303093e+00 0 0 0
2313 1 1.4153411039507967e+01 5.5793625417761374e+00 2.8420669432939718e+00 0 0 0
2311 1 1.3959434762770321e+01 5.7124551934297232e+00 9.1232085226952517e-02 0 0 0
2282 1 1.5528080072512861e+01 4.2424723937334283e+00 1.4713568354040094e+00 0 0 0
2732 1 1.8203458165339569e+01 4.2420116146496012e+00 1.4739034990998059e+00 0 0 0
2763 1 1.6948185712366310e+01 5.5671850087947830e+00 2.9701464095003014e+00 0 0 0
2761 1 1.6808791534084911e+01 5.7053406783342036e+00 5.0923570427681461e-02 0 0 0
3213 1 1.9838112587871475e+01 5.6674137890357397e+00 2.9177059142938147e+00 0 0 0
3182 1 2.1266020509204516e+01 4.2664083451613539e+00 1.5175606358337319e+00 0 0 0
3211 1 1.9863541937867158e+01 5.5982259649181438e+00 1.2983418949607126e-01 0 0 0
3632 1 2.4204719013189337e+01 4.1831172701753525e+00 1.4759120939844379e+00 0 0 0
3663 1 2.2709855470116970e+01 5.5795938011309012e+00 2.9583432579531204e+00 0 0 0
3661 1 2.2776057997702591e+01 5.5983816606791716e+00 1.1998494943648493e-01 0 0 0
4082 1 2.7064510329533118e+01 4.3543336371639922e+00 1.5094514949050915e+00 0 0 0
4113 1 2.5699247590590009e+01 5.6521694380375731e+00 2.9546313349923077e+00 0 0 0
4563 1 2.8503621389467277e+01 5.7469646934001872e+00 2.9033135995212218e+00 0 0 0
62 1 1.4759026471783909e+00 7.0862131970877851e+00 1.5378661021934004e+00 0 0 0
543 1 2.9497655861515764e+00 8.4654374907472452e+00 3.0501276526711614e+00 0 0 0
93 1 2.5640722843612650e-02 8.4123631220562149e+00 3.0184811433492884e+00 0 0 0
541 1 2.8099132389188615e+00 8.5097085188281678e+00 1.6320369484492711e-01 0 0 0
91 1 1.0171669420424860e-01 8.5367390721304393e+00 1.4927834833636475e-01 0 0 0
512 1 4.1192571684621084e+00 6.9846500794985360e+00 1.5090692339470448e+00 0 0 0
993 1 5.6156101456316252e+00 8.6034153672498732e+00 2.8277984929785247e+00 0 0 0
962 1 7.0246934941948611e+00 7.2299726680752316e+00 1.4468057719368541e+00 0 0 0
1443 1 8.3749728728299360e+00 8.4798885499574403e+00 2.9904075686410412e+00 0 0 0
1412 1 9.8977112981497317e+00 7.0881307999186998e+00 1.5853429755127486e+00 0 0 0
1893 1 1.1266957200414902e+01 8.5415868383015248e+00 3.0216400306668856e+00 0 0 0
1891 1 1.1203182762951217e+01 8.5613805331418220e+00 1.7718903725163884e-01 0 0 0
1862 1 1.2768280365755682e+01 7.1242917326256068e+00 1.5867297074417546e+00 0 0 0
2343 1 1.4165158415758544e+01 8.6830037337660713e+00 3.0154252006592519e+00 0 0 0
2312 1 1.5505695609181368e+01 7.2288914608888302e+00 1.6521329658486104e+00 0 0 0
2341 1 1.4106271908523725e+01 8.7059352592631978e+00 4.3815607843842475e-02 0 0 0
2762 1 1.8390286026894270e+01 6.9574617593768231e+00 1.5660376067677513e+00 0 0 0
2793 1 1.7084829879613121e+01 8.4623902914936941e+00 2.9972579474030012e+00 0 0 0
2791 1 1.6978631873232512e+01 8.4072226229531850e+00 1.5431522586783400e-01 0 0 0
2792 1 1.8470561786276193e+01 9.8335200229411459e+00 1.4819415397849072e+00 0 0 0
3212 1 2.1277402023169703e+01 6.9964465248001826e+00 1.4847921437298257e+00 0 0 0
3243 1 1.9841933087455562e+01 8.3745882097040312e+00 2.9644807706858942e+00 0 0 0
3241 1 1.9853653393791539e+01 8.4823153724396807e+00 1.5563979856114674e-01 0 0 0
3242 1 2.1292702319992898e+01 9.7669537663492765e+00 1.4437729686699843e+00 0 0 0
3662 1 2.4157840466180630e+01 6.8408134129511584e+00 1.4816858126757999e+00 0 0 0
3693 1 2.2767051399984641e+01 8.4759032114808779e+00 2.8787973983368524e+00 0 0 0
3691 1 2.2654191387622415e+01 8.3462569137470499e+00 9.2365770263098376e-02 0 0 0
4112 1 2.7052151411265843e+01 7.0727788215779430e+00 1.4430486095163928e+00 0 0 0
4143 1 2.5633399319051055e+01 8.4867209863755555e+00 2.9684379442633531e+00 0 0 0
4591 1 2.8516848802372735e+01 8.4201282745415682e+00 4.5504530038168338e-02 0 0 0
4593 1 2.8495313436766303e+01 8.4279254451847034e+00 2.9576843546373501e+00 0 0 0
92 1 1.5030247018067975e+00 9.9437711027746172e+00 1.6321073199908436e+00 0 0 0
573 1 2.8546969822372290e+00 1.1357078980679811e+01 3.0103999492474336e+00 0 0 0
122 1 1.4625957281857793e+00 1.2827213009733164e+01 1.4100778209201432e+00 0 0 0
571 1 2.7980239071720931e+00 1.1396283105061711e+01 6.8257861210122436e-02 0 0 0
123 1 1.1195616862656788e-01 1.1404861130010454e+01 2.9055205142973932e+00 0 0 0
542 1 4.2370308454441457e+00 9.9179609113650571e+00 1.4675767872152903e+00 0 0 0
1023 1 5.6125412816203912e+00 1.1316256958392312e+01 2.8643073099259975e+00 0 0 0
572 1 4.1636328766589985e+00 1.2671708656737728e+01 1.4156283997469354e+00 0 0 0
1021 1 5.7304323607839978e+00 1.1438256606589361e+01 8.5796444396737753e-02 0 0 0
992 1 7.0660464760903459e+00 9.9505280395009290e+00 1.5226129963922628e+00 0 0 0
1473 1 8.5352937579469064e+00 1.1456079291559542e+01 2.8111808007317811e+00 0 0 0
1022 1 7.0700199097825651e+00 1.2795874342907128e+01 1.4757410778934394e+00 0 0 0
1471 1 8.5275627815404196e+00 1.1418832571937623e+01 4.1964566817441096e-02 0 0 0
1442 1 9.9652994280851956e+00 1.0092039471821407e+01 1.4460172308851731e+00 0 0 0
1923 1 1.1328342718542824e+01 1.1391460499220253e+01 2.9589786586877436e+00 0 0 0
1472 1 9.9114855739131684e+00 1.2858001834664677e+01 1.4545207595218212e+00 0 0 0
1892 1 1.2663064361627786e+01 9.9772506681183994e+00 1.6370579213519008e+00 0 0 0
1922 1 1.2677358929269698e+01 1.2959183015090934e+01 1.6643882714935261e+00 0 0 0
1921 1 1.1418627888946808e+01 1.1487977129717150e+01 1.1609640019509974e-01 0 0 0
2342 1 1.5569483317956541e+01 9.9171704202176443e+00 1.6253287216112773e+00 0 0 0
2373 1 1.4176628849521896e+01 1.1350513243883555e+01 2.9632908357963381e+00 0 0 0
2372 1 1.5598979380232963e+01 1.2686464636847766e+01 1.5229539303639372e+00 0 0 0
2371 1 1.3946193705564452e+01 1.1320847272668672e+01 6.3185088901769479e-02 0 0 0
2823 1 1.7066758982927826e+01 1.1240193425358353e+01 2.8722533181112606e+00 0 0 0
2822 1 1.8501458117089221e+01 1.2663239097277160e+01 1.3925914602814673e+00 0 0 0
2821 1 1.7036491608527605e+01 1.1290484512702585e+01 6.1262329224938163e-02 0 0 0
3273 1 1.9867322791303426e+01 1.1289548242531597e+01 3.0011473850625601e+00 0 0 0
3272 1 2.1289210259977835e+01 1.2617988219256960e+01 1.5376546782201261e+00 0 0 0
3692 1 2.4206898949257571e+01 9.9882880736546102e+00 1.5542867463159242e+00 0 0 0
3723 1 2.2671212468164690e+01 1.1398947762831604e+01 3.0255537521232836e+00 0 0 0
4203 1 2.4056857336329031e+01 1.2827043830381538e+01 1.4710120083985798e+00 0 0 0
3721 1 2.2718524396359168e+01 1.1273325378636343e+01 6.8513652019875484e-02 0 0 0
4142 1 2.7100624897639889e+01 9.9754170032885732e+00 1.5298781768025107e+00 0 0 0
4651 1 2.6981168666755007e+01 1.2836719967834791e+01 1.6342876895690399e+00 0 0 0
4173 1 2.5476172479857890e+01 1.1377004711194120e+01 2.9731483877480631e+00 0 0 0
4649 1 2.8532552186704276e+01 1.1378215023247440e+01 2.1438154959647102e-01 0 0 1
3722 1 2.5706092203553851e+01 1.1344418988674285e+01 9.0462314398141300e-02 0 0 0
153 1 5.0954504605201234e-02 1.4122834540471096e+01 2.8468556580505164e+00 0 0 0
603 1 2.8679775166421124e+00 1.4228806685484924e+01 2.9037590572577101e+00 0 0 0
152 1 1.4182587113253839e+00 1.5711387521475984e+01 1.5484392886033334e+00 0 0 0
601 1 2.9134874394961043e+00 1.4209302702071776e+01 1.6773140133608422e-02 0 0 0
1053 1 5.6790825786470496e+00 1.4180863656785350e+01 2.8272487297954494e+00 0 0 0
602 1 4.2508589209253023e+00 1.5726899624352331e+01 1.5218167070156305e+00 0 0 0
1051 1 5.5134067500028348e+00 1.4084267866228750e+01 1.3622877864113445e-01 0 0 0
1503 1 8.5253940992485528e+00 1.4213982705948256e+01 2.9542130962693598e+00 0 0 0
1052 1 7.1209661988198310e+00 1.5693753625916520e+01 1.4407696364848541e+00 0 0 0
1501 1 8.5376342406595462e+00 1.4263560424303822e+01 2.5512499556897893e-02 0 0 0
1953 1 1.1204827648936419e+01 1.4316226815298126e+01 3.0382530901396922e+00 0 0 0
1502 1 9.8453596304712470e+00 1.5649223240832548e+01 1.4319275242550809e+00 0 0 0
1952 1 1.2638611376631285e+01 1.5663053042390059e+01 1.4743183351727460e+00 0 0 0
1951 1 1.1293539533854215e+01 1.4314903629374946e+01 1.3704576083989464e-01 0 0 0
2403 1 1.4108377703158260e+01 1.4266609659767875e+01 3.0281491130144973e+00 0 0 0
2402 1 1.5559342601087994e+01 1.5599610096210586e+01 1.5507330250443025e+00 0 0 0
2401 1 1.4175633091127606e+01 1.4247102622547668e+01 2.2220409506075800e-01 0 0 0
2853 1 1.7001747515377019e+01 1.4210730544983452e+01 2.9032232071368012e+00 0 0 0
2852 1 1.8378394659088343e+01 1.5620670670392574e+01 1.5491977777151080e+00 0 0 0
2851 1 1.7077691952045793e+01 1.4152634300726108e+01 7.5147402083898612e-02 0 0 0
3303 1 1.9887906687153745e+01 1.4133498782763171e+01 2.9169598620024146e+00 0 0 0
3302 1 2.1032384161932558e+01 1.5558054411029556e+01 1.5398502107834209e+00 0 0 0
3753 1 2.2640978760426435e+01 1.4189689822271935e+01 3.0717409429236602e+00 0 0 0
3752 1 2.4072841276642055e+01 1.5771287549841727e+01 1.6501991893753569e+00 0 0 0
3751 1 2.2630728461444850e+01 1.4117731048394818e+01 1.6214384315223457e-01 0 0 0
4202 1 2.8488752314743721e+01 1.4283486521885617e+01 1.0950568269169283e-01 0 0 0
4172 1 2.5423273648933471e+01 1.4274633239403270e+01 2.9864384951332199e+00 0 0 0
4201 1 2.5672793695926096e+01 1.4347739250304029e+01 2.2193471976888907e-01 0 0 0
4653 1 2.8511793265370699e+01 1.4266632845674838e+01 2.9460756518218836e+00 0 0 0
182 1 1.4237558508369150e+00 1.8525720261227406e+01 1.6433147977725491e+00 0 0 0
633 1 2.7816150312628261e+00 1.7058703145236482e+01 3.0500908233716104e+00 0 0 0
631 1 2.8860386123676376e+00 1.7090672486896835e+01 6.8551701504341950e-02 0 0 0
181 1 8.6505992753093675e-02 1.7222098940298814e+01 1.3982731144791261e-01 0 0 0
632 1 4.2707058603925390e+00 1.8474383763568341e+01 1.5158286290263552e+00 0 0 0
1083 1 5.7090169834773477e+00 1.7053397815660492e+01 2.9006039497569711e+00 0 0 0
1081 1 5.7826366440936710e+00 1.7086731656169523e+01 9.9880536499510786e-02 0 0 0
1082 1 7.2260809122657728e+00 1.8477406022716519e+01 1.3875071439929745e+00 0 0 0
1533 1 8.4805126490826925e+00 1.7054343921273855e+01 2.8730821209521826e+00 0 0 0
1532 1 9.8282898821061018e+00 1.8533797492360655e+01 1.4677961378318434e+00 0 0 0
1983 1 1.1347348566861420e+01 1.7236639154700363e+01 2.9090647635776770e+00 0 0 0
1982 1 1.2622639231643252e+01 1.8688270959138528e+01 1.5089811184380058e+00 0 0 0
2433 1 1.4037761814844680e+01 1.7186085649413204e+01 2.9335922028078691e+00 0 0 0
2432 1 1.5501282108767052e+01 1.8498964006586345e+01 1.3657797068905309e+00 0 0 0
2882 1 1.8323272631897702e+01 1.8488457432907602e+01 1.4451456823627442e+00 0 0 0
2883 1 1.6841426726969321e+01 1.7034127315139472e+01 2.8951041770145070e+00 0 0 0
2881 1 1.7026284111822093e+01 1.6998000129795759e+01 1.3774582851284202e-02 0 0 0
3333 1 1.9780288480178307e+01 1.7078894558762897e+01 2.9390453833773758e+00 0 0 0
3332 1 2.1199561267152284e+01 1.8426264490241355e+01 1.4854193731660956e+00 0 0 0
3331 1 1.9665457565924243e+01 1.7003560406203512e+01 2.4519218839387236e-03 0 0 0
3783 1 2.2590620918880791e+01 1.7109953132367639e+01 3.0391781865967462e+00 0 0 0
3782 1 2.4159534231663095e+01 1.8504476313845181e+01 1.7146132593715615e+00 0 0 0
3781 1 2.2565408054320102e+01 1.7156045440083453e+01 9.4082629271772897e-02 0 0 0
4233 1 2.5492490299229392e+01 1.7053676174414417e+01 2.9847384239313803e+00 0 0 0
4232 1 2.7076324861431896e+01 1.8739597001140421e+01 1.7273890437957109e+00 0 0 0
4231 1 2.5543775291302396e+01 1.7090983104419568e+01 2.1951314667890709e-01 0 0 0
4711 1 2.8269401347425624e+01 1.7061112578630738e+01 3.1141669650786657e-01 0 0 0
212 1 1.4779093617721051e+00 2.1436941251627395e+01 1.4307959257650318e+00 0 0 0
663 1 2.8199078891689737e+00 1.9850977706124532e+01 2.9992977892198209e+00 0 0 0
693 1 2.9642019750988351e+00 2.2886978305427004e+01 2.9097798379779465e+00 0 0 0
213 1 1.0031797758746004e-02 2.0059330918067804e+01 2.9223611789089192e+00 0 0 0
243 1 2.1405604085333121e-02 2.2904883634053018e+01 2.8455688143821081e+00 0 0 0
241 1 3.2078588940009922e-04 2.2960634308601897e+01 4.2184970178550982e-02 0 0 0
662 1 4.1305781546605003e+00 2.1335367158634359e+01 1.4922097422442004e+00 0 0 0
1113 1 5.6194122860290729e+00 1.9941182814157617e+01 2.9209151882345861e+00 0 0 0
1143 1 5.6318935930800373e+00 2.2839917822953691e+01 2.9695737600839234e+00 0 0 0
1111 1 5.7205949628427950e+00 1.9939293909817518e+01 1.1767111528293128e-02 0 0 0
1141 1 5.6818566005061166e+00 2.2868146171360635e+01 7.0291606683638819e-02 0 0 0
1112 1 7.1535739507425138e+00 2.1288947594393662e+01 1.4535415514677970e+00 0 0 0
1563 1 8.4785272375866398e+00 1.9859580345111841e+01 2.9224135492004031e+00 0 0 0
1593 1 8.5468118800934061e+00 2.2831465063540890e+01 2.9466647439500142e+00 0 0 0
1561 1 8.5825057700615854e+00 1.9995516506576848e+01 3.7490341753120049e-02 0 0 0
1591 1 8.5607399429116988e+00 2.2725932058019890e+01 4.6045324161422735e-02 0 0 0
1562 1 1.0004378432230434e+01 2.1447538805478587e+01 1.4857897820214043e+00 0 0 0
2013 1 1.1261903285089584e+01 1.9967837188115134e+01 2.9157081606468807e+00 0 0 0
2043 1 1.1372097946257108e+01 2.2897645427796078e+01 2.9702641564043790e+00 0 0 0
2012 1 1.2756870200677291e+01 2.1639000445633489e+01 1.5632559850948911e+00 0 0 0
2463 1 1.4130559543906857e+01 2.0091353456704258e+01 2.8400177137647269e+00 0 0 0
2462 1 1.5573845920623331e+01 2.1513931046057969e+01 1.5025035831262115e+00 0 0 0
2491 1 1.4121486560592144e+01 2.2945070186266857e+01 9.0385390301410448e-02 0 0 0
2912 1 1.8282435429776669e+01 2.1563639087475579e+01 1.5088829074001751e+00 0 0 0
2913 1 1.6834652890406833e+01 1.9974181314515139e+01 2.9429922460390698e+00 0 0 0
2943 1 1.7023761043897746e+01 2.2938214486267455e+01 2.9592691330854337e+00 0 0 0
2911 1 1.6819967384159103e+01 2.0169130528482441e+01 3.3574519652681545e-02 0 0 0
3363 1 1.9755614654394680e+01 1.9969614255328267e+01 2.8891072451269975e+00 0 0 0
3393 1 1.9888158464392891e+01 2.2869629574109673e+01 2.9285667699069164e+00 0 0 0
3362 1 2.1238783848475126e+01 2.1387201312258174e+01 1.5837806413366353e+00 0 0 0
3391 1 1.9905430177679161e+01 2.2956936977563263e+01 1.1811872841165344e-01 0 0 0
3361 1 1.9814916607482999e+01 2.0068686307523020e+01 6.0355981773795975e-02 0 0 0
3812 1 2.4123056128356485e+01 2.1467397185931087e+01 1.5269954009169409e+00 0 0 0
3813 1 2.2799793865057151e+01 1.9940517658563930e+01 3.0560431596083797e+00 0 0 0
3843 1 2.2766821023552598e+01 2.2929135352587362e+01 3.0311386377999927e+00 0 0 0
3841 1 2.2663860160103276e+01 2.2870688726491732e+01 1.7584981005230721e-01 0 0 0
3811 1 2.2743981140572266e+01 2.0066279244635137e+01 2.0054314190097497e-01 0 0 0
4263 1 2.5626164459699250e+01 2.0087643063514999e+01 3.1386070285513665e+00 0 0 0
4293 1 2.5519033655055512e+01 2.2784263790946383e+01 2.9640939783676821e+00 0 0 0
4262 1 2.7004611544437076e+01 2.1479413505112760e+01 1.6115095688623517e+00 0 0 0
4291 1 2.5611641507707429e+01 2.2946760566924471e+01 1.4947104897797367e-01 0 0 0
4261 1 2.5628582960837107e+01 1.9982432704235826e+01 1.5466486590476108e-01 0 0 0
4743 1 2.8526831253067442e+01 2.2754364581412116e+01 3.0777006547324883e+00 0 0 0
242 1 1.3673848338423296e+00 2.4251576755482358e+01 1.5745063484896149e+00 0 0 0
723 1 2.6917921022223812e+00 2.5769702002046319e+01 2.8772964907272534e+00 0 0 0
721 1 2.8972606397915954e+00 2.5691454401605895e+01 8.6888359319695685e-02 0 0 0
692 1 4.2820149443878215e+00 2.4288130417958747e+01 1.5118359141713065e+00 0 0 0
1173 1 5.6771336582454968e+00 2.5814283423762788e+01 2.9076076747636264e+00 0 0 0
1171 1 5.7977131925141592e+00 2.5787334257966425e+01 2.0921185060894756e-01 0 0 0
1142 1 7.1706675615980542e+00 2.4275178231308885e+01 1.5547153213885114e+00 0 0 0
1623 1 8.5227979558265066e+00 2.5652730484517534e+01 3.0053979212568800e+00 0 0 0
1621 1 8.6079455074966731e+00 2.5752483233343430e+01 1.6471101640346705e-01 0 0 0
1592 1 1.0019720091309290e+01 2.4281048956361055e+01 1.3941818835885422e+00 0 0 0
2073 1 1.1186022998406532e+01 2.5656742727630121e+01 3.0798050977753784e+00 0 0 0
2071 1 1.1266330705194527e+01 2.5792484020389594e+01 5.9039364946360903e-02 0 0 0
2042 1 1.2569110849732738e+01 2.4478479210755818e+01 1.5543358242726770e+00 0 0 0
2493 1 1.4199011654400380e+01 2.3069303610485441e+01 2.9358355188690015e+00 0 0 0
2523 1 1.4067548996605977e+01 2.5848082932341672e+01 3.0519298673367978e+00 0 0 0
2492 1 1.5603858836269406e+01 2.4453139774513705e+01 1.5624069865266044e+00 0 0 0
2521 1 1.3952467509335827e+01 2.5757921161990332e+01 4.5973667869930693e-02 0 0 0
2941 1 1.6920878551967586e+01 2.3085889523498249e+01 9.8064972667814360e-02 0 0 0
2942 1 1.8393486635292358e+01 2.4342521906768159e+01 1.5283722375421049e+00 0 0 0
2973 1 1.7007988074913317e+01 2.5812653235550318e+01 2.8875954965113291e+00 0 0 0
2971 1 1.6954139862554396e+01 2.5868078087307676e+01 1.4155823149480740e-01 0 0 0
3423 1 1.9795913534280370e+01 2.5892238962577533e+01 2.8927855284488966e+00 0 0 0
3392 1 2.1324929203224805e+01 2.4339324242268258e+01 1.7045924195885147e+00 0 0 0
3421 1 1.9902490171556618e+01 2.5698732924031201e+01 1.2083579028228648e-01 0 0 0
3842 1 2.4189163245006316e+01 2.4349780611999520e+01 1.5892968546356001e+00 0 0 0
3873 1 2.2768120209759129e+01 2.5768317744870686e+01 3.0339786643274227e+00 0 0 0
3871 1 2.2718419165277759e+01 2.5803591298007174e+01 2.5476008623625324e-01 0 0 0
4292 1 2.7105560709667284e+01 2.4220693188132628e+01 1.5799103672636099e+00 0 0 0
4323 1 2.5498823464760385e+01 2.5634466700412755e+01 2.9885313424859068e+00 0 0 0
4321 1 2.5595924162532086e+01 2.5794739549678081e+01 2.2130265756856793e-01 0 0 0
4799 1 2.8450436367220153e+01 2.5821330039557463e+01 1.2327533879836197e-01 0 0 1
4773 1 2.8493908695779428e+01 2.5731325045900533e+01 3.0492928013351546e+00 0 0 0
272 1 1.3092869900236097e+00 2.7209392561763504e+01 1.4920794052392850e+00 0 0 0
753 1 2.6166264911175787e+00 2.8551060036608682e+01 2.9361133750585018e+00 0 0 0
751 1 2.7564523461880168e+00 2.8659547537579314e+01 1.2782280362368658e-02 0 0 0
301 1 9.2481194404806691e-02 2.8694224803139583e+01 3.7488617869774817e-04 0 0 0
722 1 4.0739733098249555e+00 2.7258259500435148e+01 1.3893228972661706e+00 0 0 0
1203 1 5.4038626649649704e+00 2.8643586009805368e+01 2.8552074329101784e+00 0 0 0
1172 1 7.1579426107402737e+00 2.7060312678937130e+01 1.6304658987331746e+00 0 0 0
1653 1 8.5273887257888124e+00 2.8634914204408037e+01 2.9115863877043564e+00 0 0 0
1651 1 8.3962303435602870e+00 2.8552855364840752e+01 9.8832665996581151e-02 0 0 0
1622 1 1.0097205462102838e+01 2.7185468944438320e+01 1.5342079183414759e+00 0 0 0
2103 1 1.1283193296475533e+01 2.8644604079222333e+01 3.1265140553198583e+00 0 0 0
2101 1 1.1242214126236638e+01 2.8613897573090892e+01 1.1646541502876039e-01 0 0 0
2072 1 1.2523984209418304e+01 2.7208704891254218e+01 1.6073639792418128e+00 0 0 0
2553 1 1.3849452597760303e+01 2.8612878003632101e+01 2.9751815234191006e+00 0 0 0
2522 1 1.5522051980754709e+01 2.7288861429985623e+01 1.4767950847187767e+00 0 0 0
2551 1 1.4045854339406077e+01 2.8579906884332797e+01 6.3013273795089808e-02 0 0 0
2972 1 1.8294670730627576e+01 2.7187365393695600e+01 1.6119630969234324e+00 0 0 0
3003 1 1.6943577602329128e+01 2.8840409360643946e+01 2.8364796645824830e+00 0 0 0
3001 1 1.6930207247491246e+01 2.8644809368391350e+01 8.3122934668129630e-02 0 0 0
3422 1 2.1250216308810877e+01 2.7343172999762938e+01 1.4928963746379025e+00 0 0 0
3453 1 1.9894171267062600e+01 2.8719706177037242e+01 3.0616174185875722e+00 0 0 0
3451 1 1.9864165387919211e+01 2.8733360695793035e+01 4.6209762540165740e-02 0 0 0
3872 1 2.4165393954340232e+01 2.7284164401179517e+01 1.6270030113387997e+00 0 0 0
3903 1 2.2721612666074680e+01 2.8736144861180197e+01 2.9935475619248484e+00 0 0 0
3901 1 2.2827791857904529e+01 2.8694889850116926e+01 6.1107414441964047e-02 0 0 0
4353 1 2.5730042943483575e+01 2.8638829384710103e+01 3.1248924125306465e+00 0 0 0
4322 1 2.7097848762876133e+01 2.7274388355766430e+01 1.6079987199794368e+00 0 0 0
4351 1 2.5666595115910180e+01 2.8763588352658548e+01 4.5083533965573845e-02 0 0 0
302 1 1.3683949284482206e+00 3.0064257725963266e+01 1.5865005624074797e+00 0 0 0
783 1 2.7863699446492061e+00 3.1511644241178615e+01 3.0194051424118706e+00 0 0 0
781 1 2.7472056206513602e+00 3.1333638379050864e+01 1.4430162273153202e-01 0 0 0
332 1 1.1158024836980820e+00 3.2941562798780538e+01 1.5357101505013042e+00 0 0 0
331 1 4.1415834635018432e-02 3.1539895256751368e+01 2.6531835037519890e-02 0 0 0
752 1 4.1952033613639781e+00 3.0116027553785106e+01 1.5226662358705509e+00 0 0 0
1233 1 5.5204957288253782e+00 3.1572685702468053e+01 2.8970401380668158e+00 0 0 0
1231 1 5.5741865940973172e+00 3.1369885010655214e+01 1.6381466951944304e-01 0 0 0
782 1 4.1589400853964529e+00 3.2789927868888270e+01 1.3359547925727184e+00 0 0 0
1202 1 7.0053427230927108e+00 2.9888755437979704e+01 1.6107393452640129e+00 0 0 0
1683 1 8.4054043697500429e+00 3.1575857895719246e+01 2.9146440884787181e+00 0 0 0
1232 1 6.9196674445607353e+00 3.2834277956742490e+01 1.5021704206935944e+00 0 0 0
1681 1 8.3172095932200065e+00 3.1339005337016783e+01 7.0600696212789388e-02 0 0 0
1652 1 9.7173485415145411e+00 2.9993522495697245e+01 1.5537175803779242e+00 0 0 0
2133 1 1.1253211866690817e+01 3.1553112819757253e+01 2.8883714267003393e+00 0 0 0
2131 1 1.1090100399931396e+01 3.1492632293840245e+01 3.0831697806803685e-02 0 0 0
1682 1 9.7501949278821165e+00 3.2930222169953794e+01 1.3700187978454084e+00 0 0 0
2102 1 1.2723137476309399e+01 3.0135031233602323e+01 1.5924993896933319e+00 0 0 0
2583 1 1.4151349347595390e+01 3.1503712653770716e+01 3.0347018421921685e+00 0 0 0
2552 1 1.5453996164788499e+01 3.0093894378993557e+01 1.3953347825655622e+00 0 0 0
2581 1 1.3939188340236759e+01 3.1532430870502470e+01 8.7047150277807850e-02 0 0 0
2582 1 1.5629317375837035e+01 3.2850609412096979e+01 1.2986581743225796e+00 0 0 0
3002 1 1.8367034263063605e+01 3.0231663274512520e+01 1.4920831483408914e+00 0 0 0
3033 1 1.6966674571686106e+01 3.1527651358772896e+01 2.9158342578823198e+00 0 0 0
3032 1 1.8354559139084223e+01 3.2809155931111654e+01 1.4377779147919783e+00 0 0 0
3452 1 2.1250933536420803e+01 3.0093201745408731e+01 1.5372113234175593e+00 0 0 0
3483 1 1.9793546836096613e+01 3.1600103425768829e+01 2.9258142030776977e+00 0 0 0
3482 1 2.1138529922245691e+01 3.2828609104011271e+01 1.3941839566754948e+00 0 0 0
3902 1 2.4134436739478772e+01 3.0192962493197335e+01 1.6112399524669447e+00 0 0 0
3933 1 2.2768341087795495e+01 3.1552997538875815e+01 2.9973339456234491e+00 0 0 0
3932 1 2.4192860219794841e+01 3.2813627047914323e+01 1.4628390571110639e+00 0 0 0
3931 1 2.2651411501448141e+01 3.1389695533684343e+01 1.0170846703048249e-01 0 0 0
4383 1 2.5848697019886675e+01 3.1484381908237324e+01 3.1234829198532248e+00 0 0 0
4352 1 2.7114868808435247e+01 3.0054165769847614e+01 1.5750248788889061e+00 0 0 0
4382 1 2.7112449311408213e+01 3.2818325419694013e+01 1.4880801629841387e+00 0 0 0
4381 1 2.5730026596257609e+01 3.1372358556640876e+01 7.6879503632802243e-02 0 0 0
813 1 2.8625404673897643e+00 3.4182991124134958e+01 2.7919898237739735e+00 0 0 0
362 1 1.3699449019795842e+00 3.5622802600084640e+01 1.4489868241397350e+00 0 0 0
811 1 2.7846752985909666e+00 3.4266524594190194e+01 1.2818042899291288e-01 0 0 0
1263 1 5.6585932736801423e+00 3.4399577187718130e+01 2.9514737024793769e+00 0 0 0
812 1 4.2829303651040291e+00 3.5729049312611899e+01 1.4098900479800385e+00 0 0 0
1261 1 5.5266634882098593e+00 3.4293042156488603e+01 5.4580633228065771e-02 0 0 0
1713 1 8.5087605497822203e+00 3.4382908161879811e+01 2.9313841568499961e+00 0 0 0
1262 1 6.9895595574642009e+00 3.5673975955808423e+01 1.3659119756298759e+00 0 0 0
1711 1 8.3874668356616908e+00 3.4263232487748233e+01 9.3967744384633387e-03 0 0 0
2132 1 1.2643423790513298e+01 3.2964446662005656e+01 1.5286008388081582e+00 0 0 0
2163 1 1.1256500029446176e+01 3.4330200569917245e+01 2.9495644330163309e+00 0 0 0
1712 1 9.7242716304575900e+00 3.5738138707474882e+01 1.3525685514874650e+00 0 0 0
2162 1 1.2688959523398768e+01 3.5617907836986468e+01 1.4207967567255937e+00 0 0 0
2613 1 1.4277675668185173e+01 3.4159829226466805e+01 2.8959973556302336e+00 0 0 0
2612 1 1.5524728602577017e+01 3.5839994187318460e+01 1.4647731347635760e+00 0 0 0
3063 1 1.6975809379916448e+01 3.4302309853689017e+01 2.8562127513755073e+00 0 0 0
3062 1 1.8462884189483155e+01 3.5598099402663202e+01 1.3997477965534233e+00 0 0 0
3513 1 1.9895934785609903e+01 3.4345863222537048e+01 2.8903599665011677e+00 0 0 0
3512 1 2.1334704994312091e+01 3.5670813820165584e+01 1.4779064091813550e+00 0 0 0
3963 1 2.2822170878199799e+01 3.4264212011376578e+01 2.9209656622216298e+00 0 0 0
3962 1 2.4230481438044841e+01 3.5696259289768754e+01 1.4189132993256681e+00 0 0 0
3961 1 2.2725961587711836e+01 3.4265127968539723e+01 7.5355097984888250e-02 0 0 0
4413 1 2.5695385403069626e+01 3.4266017302886908e+01 2.9573106009043384e+00 0 0 0
4412 1 2.7146977717841860e+01 3.5678264406837727e+01 1.5976351013670294e+00 0 0 0
4411 1 2.5626027677222414e+01 3.4412931684554017e+01 7.8309442543759392e-02 0 0 0
392 1 1.4563466676880652e+00 3.8559212445247866e+01 1.5369986518893930e+00 0 0 0
843 1 2.8975876980154736e+00 3.7050632014919813e+01 2.9005931916122472e+00 0 0 0
841 1 2.9293201240763049e+00 3.7201535020012521e+01 1.0019875057863180e-01 0 0 0
391 1 1.1109584523293575e-01 3.7134744741227109e+01 8.3416518863871580e-02 0 0 0
393 1 7.2724025120376540e-02 3.7075121925454944e+01 3.0135612024581921e+00 0 0 0
842 1 4.1701619503243927e+00 3.8668474856617671e+01 1.6413440475412382e+00 0 0 0
1293 1 5.5946755541985800e+00 3.7134627228823362e+01 2.8904725579956652e+00 0 0 0
1291 1 5.7727683099456959e+00 3.7256983883830898e+01 7.6730381279938708e-03 0 0 0
1292 1 7.0029925239569923e+00 3.8624407836984410e+01 1.4568254144128223e+00 0 0 0
1743 1 8.3937942938059908e+00 3.7046523279869120e+01 2.9308708439912410e+00 0 0 0
1741 1 8.3515059302032597e+00 3.7318377774266708e+01 1.5308678077520996e-01 0 0 0
1742 1 9.7439484149518591e+00 3.8617975779956026e+01 1.4294306770681129e+00 0 0 0
2193 1 1.1288266652311886e+01 3.7025954890719873e+01 2.7057872198979296e+00 0 0 0
2192 1 1.2571675428743731e+01 3.8524696170963786e+01 1.3662505607244910e+00 0 0 0
2643 1 1.4068528787743782e+01 3.7108650907738117e+01 2.8387977926242876e+00 0 0 0
2642 1 1.5497848312850810e+01 3.8598389655458114e+01 1.4946134903468815e+00 0 0 0