LAMMPS data file via write_data, version 7 Aug 2019, timestep = 28000

9000 atoms
1 atom types

-1.2454929418246455e-04 5.7106124549294186e+01 xlo xhi
-9.3411970636848420e-05 4.2829593411970642e+01 ylo yhi
-9.3411970636848420e-05 4.2829593411970642e+01 zlo zhi

Masses

1 56

Atoms # atomic

2 1 1.4801083964842801e+00 1.4189653319519293e+00 1.4965811260753559e+00 0 0 0
483 1 2.9276936891020937e+00 2.8376033353294745e+00 2.9463600584130236e+00 0 0 0
481 1 2.9422203908765434e+00 2.7228335264542727e+00 3.5441636093899831e-02 0 0 0
451 1 2.8757208058716848e+00 7.9318588178622917e-03 3.8373006620643038e-02 0 0 0
33 1 1.6504507410728817e-02 2.8883450045968342e+00 2.7489149858549795e+00 0 0 0
3 1 7.2190944759404990e-02 1.8011606142913195e-02 2.8975693025804596e+00 0 0 0
452 1 4.4899811597199104e+00 1.2657894870184987e+00 1.2651836300321164e+00 0 0 0
933 1 5.8580447479989441e+00 2.8341289367406608e+00 2.7547391681822413e+00 0 0 0
902 1 7.2827003453550567e+00 1.5150953510896650e+00 1.3609876427469068e+00 0 0 0
1383 1 8.6200510898702873e+00 2.7823233422688247e+00 2.7891578715484493e+00 0 0 0
1353 1 8.6278464775195793e+00 9.9431000324537167e-02 2.7991049581203939e+00 0 0 0
1381 1 8.7943657482440543e+00 2.6959577153109242e+00 2.9315284337918968e-02 0 0 0
1352 1 1.0208316140401685e+01 1.2953528227512840e+00 1.3764085956243242e+00 0 0 0
1833 1 1.1580009940892912e+01 2.7742509594567610e+00 2.7875767145010344e+00 0 0 0
1802 1 1.3056739186546890e+01 1.3614740512878853e+00 1.3924802132272212e+00 0 0 0
2283 1 1.4310914986768884e+01 2.7251601332858026e+00 2.8406861834430752e+00 0 0 0
2252 1 1.5899907692389302e+01 1.3635782040823368e+00 1.4571728242486190e+00 0 0 0
2702 1 1.8650467882983641e+01 1.4634796164841712e+00 1.5190897566273114e+00 0 0 0
2733 1 1.7274182344867356e+01 2.8538976370900895e+00 2.7580052051540003e+00 0 0 0
2731 1 1.7261397965652510e+01 2.9269946745358544e+00 1.2202455916771271e-02 0 0 0
3183 1 2.0111509518333477e+01 2.7218632569630543e+00 2.9025796255303162e+00 0 0 0
3152 1 2.1508700659290376e+01 1.4654768192481404e+00 1.3517008677426172e+00 0 0 0
3181 1 2.0018967897730409e+01 2.9115152350512781e+00 4.4327187787635676e-02 0 0 0
3602 1 2.4357365654952904e+01 1.4807263064056313e+00 1.4302332802179361e+00 0 0 0
3633 1 2.2863260305445561e+01 2.8947586321088714e+00 2.8724436379412706e+00 0 0 0
4052 1 2.7093561873068676e+01 1.4002339229642147e+00 1.2529372854474716e+00 0 0 0
4083 1 2.5816195866516480e+01 2.9213320795942650e+00 2.7833321525757508e+00 0 0 0
4053 1 2.5704219234453966e+01 1.0752100393170622e-01 2.8207330821305350e+00 0 0 0
4503 1 2.8550977690640568e+01 3.2033578794395737e-02 2.8315067857960683e+00 0 0 0
4533 1 2.8497142461058210e+01 2.8958981280262446e+00 2.7520823713334237e+00 0 0 0
32 1 1.6107680138958473e+00 4.2977848949854112e+00 1.4005540620936421e+00 0 0 0
513 1 2.9087390811318010e+00 5.5877076434344417e+00 2.8340849379546715e+00 0 0 0
63 1 1.7212686229928664e-01 5.7083206611225297e+00 2.8340503618691226e+00 0 0 0
482 1 4.3158764840451260e+00 4.2149659273969284e+00 1.3193746294069948e+00 0 0 0
963 1 5.8657466092511186e+00 5.6326874196748795e+00 2.8075448842065027e+00 0 0 0
932 1 7.2420516396669132e+00 4.2198533754982268e+00 1.3963586233664467e+00 0 0 0
1413 1 8.7813243899085442e+00 5.7001408613083280e+00 2.7679997508926308e+00 0 0 0
1382 1 1.0081096829559966e+01 4.1624214771887722e+00 1.3917299685755826e+00 0 0 0
1863 1 1.1669443947164526e+01 5.7447574473797767e+00 2.7110405220116602e+00 0 0 0
1832 1 1.2936478534220734e+01 4.2149930931417590e+00 1.3038396965474421e+00 0 0 0
2313 1 1.4387363055028262e+01 5.4934103402312457e+00 2.7502332443972981e+00 0 0 0
2282 1 1.5798357299845886e+01 4.1183364178516157e+00 1.2928473266500435e+00 0 0 0
2732 1 1.8651873435632172e+01 4.2501118482096549e+00 1.5313598225973539e+00 0 0 0
2763 1 1.7200947657536755e+01 5.6030971627536976e+00 2.7831797922499528e+00 0 0 0
3213 1 2.0097401657846330e+01 5.8102133964850591e+00 2.8576967170349659e+00 0 0 0
3182 1 2.1507290881619031e+01 4.3026798561703767e+00 1.4375730117678756e+00 0 0 0
3211 1 2.0038498145374966e+01 5.6947659940586686e+00 7.0839407387310871e-03 0 0 0
3632 1 2.4337395129551187e+01 4.3200357342168658e+00 1.3762438990615435e+00 0 0 0
3663 1 2.2860712219692953e+01 5.7756246706282877e+00 2.7907809934239203e+00 0 0 0
4082 1 2.7132213676042102e+01 4.4226683499212811e+00 1.3291078605490039e+00 0 0 0
4113 1 2.5724626540288547e+01 5.7863417988205956e+00 2.8320789051084403e+00 0 0 0
62 1 1.4770530448952346e+00 7.0530280864028754e+00 1.4995075977701218e+00 0 0 0
543 1 2.8569119176875741e+00 8.4993956700582203e+00 2.8164619301238960e+00 0 0 0
541 1 2.7975487743300467e+00 8.4544001713713932e+00 7.6237039751875013e-02 0 0 0
91 1 1.2706091768894562e-01 8.5086720437170484e+00 2.8253640913883951e-02 0 0 0
512 1 4.3945382066613297e+00 7.0394376382160173e+00 1.3807885265405064e+00 0 0 0
993 1 5.8878081139652396e+00 8.4624849484546250e+00 2.6768102164371097e+00 0 0 0
962 1 7.2509553002097649e+00 7.0768150662778515e+00 1.2703969863362290e+00 0 0 0
1443 1 8.7107119866541538e+00 8.6249501184412019e+00 2.7831989647641597e+00 0 0 0
1412 1 9.9880275112996362e+00 7.0547540165163376e+00 1.3688431410361037e+00 0 0 0
1893 1 1.1519001679546729e+01 8.3312847691173904e+00 2.8719903402211990e+00 0 0 0
1891 1 1.1504012116856801e+01 8.6294322938172829e+00 8.4705756232502871e-02 0 0 0
1862 1 1.2904144760193759e+01 7.0035863260121420e+00 1.3780966795649929e+00 0 0 0
2343 1 1.4427490188575751e+01 8.4817122243301988e+00 2.7983235328734630e+00 0 0 0
2312 1 1.5827992338912868e+01 7.0803254782538039e+00 1.4918081225442359e+00 0 0 0
2342 1 1.5708945718993954e+01 9.8521412069374641e+00 1.4600147618406265e+00 0 0 0
2341 1 1.4305466571851664e+01 8.5738991069552792e+00 5.4033270556997255e-02 0 0 0
2762 1 1.8625087704472989e+01 7.0872900076647296e+00 1.3983435740431784e+00 0 0 0
2793 1 1.7272091424113128e+01 8.4947189446887723e+00 2.9096702255299736e+00 0 0 0
2792 1 1.8567901901736274e+01 9.8222114325988699e+00 1.3904598933339265e+00 0 0 0
3212 1 2.1492794502628598e+01 7.1485754650268039e+00 1.4395301649290273e+00 0 0 0
3243 1 2.0068951953687272e+01 8.5944173829443802e+00 2.8283504665948884e+00 0 0 0
3662 1 2.4312438895247084e+01 7.2611796545718796e+00 1.3840393518771481e+00 0 0 0
3693 1 2.2863890237089546e+01 8.6414301364294523e+00 2.9714734497860231e+00 0 0 0
3691 1 2.3007993714354917e+01 8.6148123772379286e+00 2.4000314295323715e-02 0 0 0
4112 1 2.7276612049420553e+01 7.1913770678277142e+00 1.5568659929144228e+00 0 0 0
4143 1 2.5780774241925013e+01 8.6726243639305824e+00 2.8578517079416765e+00 0 0 0
4141 1 2.5783459746371385e+01 8.5754001523765204e+00 2.0215994096695056e-02 0 0 0
92 1 1.3395670584456287e+00 1.0015101752091411e+01 1.3768712767103872e+00 0 0 0
573 1 2.8424122144422403e+00 1.1348006934043251e+01 2.7839066332760742e+00 0 0 0
122 1 1.4598565123240983e+00 1.2911231166860064e+01 1.5497642788793990e+00 0 0 0
542 1 4.3061905959041411e+00 1.0014906912731705e+01 1.3805421359925776e+00 0 0 0
1023 1 5.8719917207469949e+00 1.1300169960289864e+01 2.7715193045880704e+00 0 0 0
572 1 4.2867009216251226e+00 1.2825220397048678e+01 1.5263370736024360e+00 0 0 0
1021 1 5.7658717752860635e+00 1.1473063545765815e+01 2.2192957391390402e-02 0 0 0
992 1 7.2189760061918271e+00 9.9653708628131614e+00 1.2944677064487162e+00 0 0 0
1473 1 8.7470597269782608e+00 1.1468795724267940e+01 2.6802522119790200e+00 0 0 0
1022 1 7.2625102581012646e+00 1.2908851341729170e+01 1.4530004483674410e+00 0 0 0
1442 1 1.0200806468372553e+01 1.0125172932941616e+01 1.3595129762134384e+00 0 0 0
1923 1 1.1588195630944305e+01 1.1432439685572417e+01 2.8274449925271528e+00 0 0 0
1472 1 1.0203798558829030e+01 1.2955245702646838e+01 1.3085284233708840e+00 0 0 0
1892 1 1.2912039388862610e+01 1.0042385262047768e+01 1.2879244222625701e+00 0 0 0
1922 1 1.3096612927791854e+01 1.2881135992403618e+01 1.3457357520639961e+00 0 0 0
2373 1 1.4411610690010598e+01 1.1388535954294900e+01 2.7133620373485847e+00 0 0 0
2371 1 1.4438739047738274e+01 1.1499702329687828e+01 3.2672251532344185e-03 0 0 0
2372 1 1.5968527192706265e+01 1.2854908049229458e+01 1.4050584569101490e+00 0 0 0
2823 1 1.7259856858795356e+01 1.1368925564052395e+01 2.8042227605845116e+00 0 0 0
2822 1 1.8548290206317311e+01 1.2809913488955818e+01 1.4524530725808522e+00 0 0 0
3242 1 2.1460084561769047e+01 1.0000242518092632e+01 1.4115307605389247e+00 0 0 0
3273 1 2.0016801822935765e+01 1.1433460255689702e+01 2.8847411634202285e+00 0 0 0
3272 1 2.1540746642602123e+01 1.2794868268752015e+01 1.5655702201139503e+00 0 0 0
3271 1 1.9903769263836598e+01 1.1354521935994418e+01 1.7964383197677466e-01 0 0 0
3692 1 2.4446202081698278e+01 1.0020803011371289e+01 1.4321216028990420e+00 0 0 0
3723 1 2.2866748999787873e+01 1.1345298281049391e+01 2.9505248090661205e+00 0 0 0
3722 1 2.4369128369210930e+01 1.2860723312420046e+01 1.6094580310046409e+00 0 0 0
4142 1 2.7189626171524761e+01 1.0050859008614989e+01 1.5890111138834819e+00 0 0 0
4173 1 2.5721298849052129e+01 1.1443424660934751e+01 2.9505469344778152e+00 0 0 0
4172 1 2.7220032590813275e+01 1.2819566848739917e+01 1.5446991955630542e+00 0 0 0
4171 1 2.5829544767038271e+01 1.1492554143878078e+01 4.0180620644299836e-02 0 0 0
4621 1 2.8491328547144544e+01 1.1389580840302193e+01 4.8191385447729829e-02 0 0 0
4623 1 2.8480672194302340e+01 1.1418407856228496e+01 2.9871304582275298e+00 0 0 0
603 1 2.9617089146622759e+00 1.4355044006852951e+01 2.9103018955864899e+00 0 0 0
152 1 1.5347429285190333e+00 1.5682220164459402e+01 1.3715774015677240e+00 0 0 0
151 1 1.2177678047352278e-01 1.4227938660660033e+01 5.4873662379607002e-02 0 0 0
601 1 3.0890760967144342e+00 1.4340073215708298e+01 9.5087546827025290e-02 0 0 0
1053 1 5.8169138413720107e+00 1.4279701919397700e+01 2.8614045531401286e+00 0 0 0
602 1 4.4816596752999960e+00 1.5846075771185973e+01 1.4713174270997935e+00 0 0 0
1503 1 8.6991451362219205e+00 1.4203684745997089e+01 2.7666407245798612e+00 0 0 0
1052 1 7.2906531527560761e+00 1.5694066609166654e+01 1.4205779232527003e+00 0 0 0
1953 1 1.1659124583267541e+01 1.4135831335571668e+01 2.8264509722194715e+00 0 0 0
1502 1 1.0231903726862022e+01 1.5593727966580525e+01 1.3401931791765920e+00 0 0 0
1952 1 1.3020063599395769e+01 1.5548513868197150e+01 1.4575402397769159e+00 0 0 0
2403 1 1.4469606911645968e+01 1.4309624559787267e+01 2.8496620318530481e+00 0 0 0
2402 1 1.5902852254147938e+01 1.5622100709822014e+01 1.3095860815578981e+00 0 0 0
2853 1 1.7220745495892061e+01 1.4217791340685185e+01 2.8063574617335258e+00 0 0 0
2852 1 1.8618457881666561e+01 1.5690916914728259e+01 1.4673867287057212e+00 0 0 0
3303 1 2.0081515828091511e+01 1.4308137706124473e+01 2.8775080593583571e+00 0 0 0
3302 1 2.1409716782131696e+01 1.5655965062449839e+01 1.3464417405601814e+00 0 0 0
3753 1 2.2988307205319021e+01 1.4254454311506247e+01 2.9693624575911355e+00 0 0 0
3752 1 2.4238308586143699e+01 1.5752047846702464e+01 1.5298880456115740e+00 0 0 0
3751 1 2.2913225992662159e+01 1.4169994316165544e+01 2.3358243944629173e-01 0 0 0
4203 1 2.5673795185389903e+01 1.4350981307259847e+01 2.9677016511910952e+00 0 0 0
4202 1 2.7118715679819939e+01 1.5651510672052074e+01 1.6979078697783561e+00 0 0 0
4201 1 2.5859565472491767e+01 1.4367718897478008e+01 1.0586314441753199e-01 0 0 0
4651 1 2.8507273550572471e+01 1.4329113331961901e+01 7.5573798847710150e-02 0 0 0
182 1 1.4468483719017742e+00 1.8644693198964323e+01 1.4618518793933366e+00 0 0 0
633 1 2.9090446001973085e+00 1.7087542947579305e+01 2.8978552250879677e+00 0 0 0
181 1 7.8504963879499026e-02 1.7245410329400372e+01 3.7989374887753904e-02 0 0 0
631 1 2.9292586660069682e+00 1.7207049560380693e+01 5.7476132408803407e-02 0 0 0
183 1 1.0769861195430960e-01 1.7245896698788400e+01 2.9461107110261331e+00 0 0 0
632 1 4.4186449923044187e+00 1.8619118773107385e+01 1.3884033949474659e+00 0 0 0
1083 1 5.8605511242332033e+00 1.7162503775807586e+01 2.8328966707280103e+00 0 0 0
1081 1 5.9177710643184476e+00 1.7143203855727400e+01 4.8424778326137084e-02 0 0 0
1082 1 7.3729810296578586e+00 1.8592080231243099e+01 1.4383088429965543e+00 0 0 0
1533 1 8.6253551333388412e+00 1.7129741881407213e+01 2.9020306082120184e+00 0 0 0
1531 1 8.7074971775675145e+00 1.7096294936332853e+01 9.5846956495905619e-02 0 0 0
1532 1 1.0036627219239428e+01 1.8561207839146284e+01 1.4842246257268530e+00 0 0 0
1983 1 1.1514311029539911e+01 1.7088544708230852e+01 2.8126993850638158e+00 0 0 0
1981 1 1.1567501580354621e+01 1.7022247385254680e+01 1.1059605477700744e-02 0 0 0
1982 1 1.2926012502874995e+01 1.8447829700520387e+01 1.4391316420826299e+00 0 0 0
2433 1 1.4446401627012214e+01 1.7161040171414886e+01 2.7769301370347623e+00 0 0 0
2432 1 1.5844058935786368e+01 1.8523562079304263e+01 1.4249029473005033e+00 0 0 0
2431 1 1.4343028655843943e+01 1.7066766517376809e+01 3.9804131446882045e-02 0 0 0
2882 1 1.8448106784711367e+01 1.8548991243240341e+01 1.3923013211607487e+00 0 0 0
2883 1 1.7194024041801828e+01 1.7144801950188750e+01 2.8036966963275876e+00 0 0 0
3333 1 1.9976561733542507e+01 1.7184929573229184e+01 2.6773222907651553e+00 0 0 0
3332 1 2.1502026430354565e+01 1.8427948571971381e+01 1.5258183459655501e+00 0 0 0
3782 1 2.4393875521845960e+01 1.8436348016952703e+01 1.5188892855017599e+00 0 0 0
3783 1 2.2918737386215692e+01 1.7108248882198481e+01 3.0206754781358836e+00 0 0 0
3781 1 2.2874587055218161e+01 1.7061110057925418e+01 1.5375216575276143e-01 0 0 0
4232 1 2.7104041480683836e+01 1.8525054247013831e+01 1.5966500895115561e+00 0 0 0
4233 1 2.5836258666890373e+01 1.7089349897067358e+01 3.0068570170826718e+00 0 0 0
4231 1 2.5728813964788483e+01 1.7026381974835818e+01 6.3902799760139850e-02 0 0 0
663 1 3.0087789840682229e+00 1.9977391695355493e+01 2.7500475268817701e+00 0 0 0
212 1 1.4520197844016960e+00 2.1345954198255665e+01 1.4839682627154287e+00 0 0 0
693 1 3.0795721111511045e+00 2.2977729521691831e+01 2.7705084476581723e+00 0 0 0
661 1 3.0320147698114841e+00 2.0120673295574132e+01 3.3266516264560092e-02 0 0 0
241 1 8.8349165216369298e-04 2.2932746285816286e+01 3.4971823394087664e-03 0 0 0
213 1 4.1686659843364844e-02 2.0009960079057258e+01 2.9344633105780047e+00 0 0 0
243 1 1.0698542925714687e-01 2.2948907761806606e+01 2.8888655647098322e+00 0 0 0
662 1 4.5119941396050667e+00 2.1533905053625375e+01 1.4198160484888778e+00 0 0 0
1113 1 5.8083732024083350e+00 2.0093269536200619e+01 2.9599539178280976e+00 0 0 0
1111 1 5.8694956335199455e+00 2.0034430118966942e+01 1.0485953348250204e-01 0 0 0
1143 1 5.9377826684262462e+00 2.2993811094307006e+01 2.9188701298168849e+00 0 0 0
1112 1 7.2007610558218165e+00 2.1458231356210916e+01 1.4020569865834445e+00 0 0 0
1563 1 8.7014200502387986e+00 2.0138328302324076e+01 2.9747430352179793e+00 0 0 0
1593 1 8.6423351942314106e+00 2.2812458450710928e+01 2.8952282131431759e+00 0 0 0
1561 1 8.6292866240632708e+00 2.0108745477286757e+01 2.8718167851245369e-02 0 0 0
1562 1 1.0089692007434699e+01 2.1451085243261844e+01 1.4130134058105099e+00 0 0 0
2013 1 1.1455591678630316e+01 1.9982715293568020e+01 2.9519780246055407e+00 0 0 0
2043 1 1.1564523891945331e+01 2.2872252064172649e+01 2.8420890984950025e+00 0 0 0
2041 1 1.1653542658923012e+01 2.2722118454603162e+01 8.7175678966657372e-02 0 0 0
2011 1 1.1577802534842407e+01 1.9909045824524917e+01 1.3225438699390732e-01 0 0 0
2012 1 1.2966419804209959e+01 2.1475234132107246e+01 1.5292642998525738e+00 0 0 0
2463 1 1.4415019892985292e+01 2.0134857067265038e+01 2.9397398637111150e+00 0 0 0
2493 1 1.4447391229420528e+01 2.2807771794573000e+01 2.9132938572642164e+00 0 0 0
2462 1 1.5793934059925904e+01 2.1441038977215868e+01 1.3966868051216481e+00 0 0 0
2461 1 1.4304517907719465e+01 2.0000920657415797e+01 3.0228780586700615e-02 0 0 0
2912 1 1.8573366618170009e+01 2.1293449213816505e+01 1.3500836589567726e+00 0 0 0
2913 1 1.7205571446539359e+01 1.9985881046295074e+01 2.8965985812121491e+00 0 0 0
2943 1 1.7272133079380886e+01 2.2858490038869434e+01 2.9734322359816692e+00 0 0 0
3363 1 2.0137370331514532e+01 1.9921406909384334e+01 2.8313899242876728e+00 0 0 0
3362 1 2.1522895312842198e+01 2.1358445704612517e+01 1.3919086582509295e+00 0 0 0
3393 1 2.0053007796375823e+01 2.2687771534968437e+01 2.7136124692998744e+00 0 0 0
3361 1 1.9948890689889954e+01 1.9944530857828322e+01 1.0909156399973101e-01 0 0 0
3391 1 2.0096357090580906e+01 2.2749870383216752e+01 6.4109918587156756e-02 0 0 0
3813 1 2.2923919167292159e+01 1.9925037065574170e+01 2.9151931911671163e+00 0 0 0
3812 1 2.4327949712388286e+01 2.1462730449360464e+01 1.5162582143864689e+00 0 0 0
3843 1 2.2809630003588367e+01 2.2750696936901761e+01 2.8005871065522361e+00 0 0 0
3811 1 2.2998758184189914e+01 1.9799262166622920e+01 1.0481995076477314e-01 0 0 0
3841 1 2.3020634560608620e+01 2.2783316235146746e+01 9.6905935244900487e-02 0 0 0
4262 1 2.6977393777743757e+01 2.1434281612492065e+01 1.5045304343543850e+00 0 0 0
4263 1 2.5645829906643353e+01 1.9935338317511931e+01 2.9118911824856051e+00 0 0 0
4293 1 2.5745131241133411e+01 2.2872863755709094e+01 2.8414766363773478e+00 0 0 0
4261 1 2.5787426149724844e+01 1.9884324488803415e+01 1.1387258208463936e-01 0 0 0
4713 1 2.8471021502815979e+01 1.9993031689205687e+01 2.7835462034692622e+00 0 0 0
4741 1 2.8413439549952702e+01 2.2797128037393676e+01 1.0913941820018001e-01 0 0 0
242 1 1.4885758110911573e+00 2.4412890303682317e+01 1.4840426329350631e+00 0 0 0
723 1 2.9210665790076025e+00 2.5811960648512862e+01 2.8728211442767062e+00 0 0 0
692 1 4.4872241508937849e+00 2.4306405083504245e+01 1.4390171918631183e+00 0 0 0
1173 1 5.9403924997394801e+00 2.5672806232620886e+01 2.7903083397760824e+00 0 0 0
1142 1 7.2443712299685155e+00 2.4245750628232834e+01 1.4022481939600917e+00 0 0 0
1623 1 8.7229729406800143e+00 2.5651621820424289e+01 2.7417279982371721e+00 0 0 0
1592 1 1.0129155971608579e+01 2.4121133140766773e+01 1.3622172414144713e+00 0 0 0
2073 1 1.1419625897243479e+01 2.5651910185680411e+01 2.8478025907412534e+00 0 0 0
2042 1 1.2942176899432791e+01 2.4325744406556201e+01 1.3961153541527933e+00 0 0 0
2523 1 1.4487997078019470e+01 2.5594843933390830e+01 2.8336134640109374e+00 0 0 0
2492 1 1.5782237366046045e+01 2.4110082889994743e+01 1.3833774704210249e+00 0 0 0
2942 1 1.8642446501300821e+01 2.4180596023756703e+01 1.4045979062443230e+00 0 0 0
2973 1 1.7318961638385144e+01 2.5633140388145158e+01 2.7285280325631067e+00 0 0 0
3423 1 1.9939936477642242e+01 2.5778484267089794e+01 2.7343489807731558e+00 0 0 0
3392 1 2.1565003442805981e+01 2.4271481007191138e+01 1.4596537938513914e+00 0 0 0
3842 1 2.4323952500037500e+01 2.4372135863994529e+01 1.4456889463070408e+00 0 0 0
3873 1 2.2781822949324326e+01 2.5729615940472300e+01 2.8817720880381166e+00 0 0 0
3871 1 2.2816182714774133e+01 2.5636344780207821e+01 1.2232527934829715e-02 0 0 0
4292 1 2.7058069416478496e+01 2.4236000879788953e+01 1.3916893783461481e+00 0 0 0
4323 1 2.5678909564761533e+01 2.5662408690469931e+01 2.8611048181872381e+00 0 0 0
4773 1 2.8361615761449567e+01 2.5650951343118102e+01 2.8651878079045163e+00 0 0 0
272 1 1.5004010700250292e+00 2.7262003264552451e+01 1.3288987922056028e+00 0 0 0
753 1 2.8795132986759797e+00 2.8594138075091710e+01 2.7635945380910720e+00 0 0 0
751 1 2.9402661353695150e+00 2.8684815510010072e+01 1.3862721416991519e-02 0 0 0
722 1 4.3078264541730817e+00 2.7174314764125100e+01 1.4497238941237371e+00 0 0 0
1203 1 5.8802691857152940e+00 2.8627041824133538e+01 2.7599870464575043e+00 0 0 0
1172 1 7.3436302416248340e+00 2.7067520092935851e+01 1.4729462763750927e+00 0 0 0
1653 1 8.7841931854543827e+00 2.8558290845750033e+01 2.7052719982282598e+00 0 0 0
1622 1 1.0274188913275472e+01 2.7019001121991302e+01 1.2169544282169074e+00 0 0 0
2103 1 1.1602012276504137e+01 2.8533014712077897e+01 2.7864870643345552e+00 0 0 0
2072 1 1.2987174929463466e+01 2.6975035822304616e+01 1.3713127290985170e+00 0 0 0
2522 1 1.5778092536776301e+01 2.7207885085922086e+01 1.4702736924390734e+00 0 0 0
2553 1 1.4524495475750406e+01 2.8568847586577181e+01 2.8901367855633380e+00 0 0 0
2551 1 1.4426373763624628e+01 2.8522605358948489e+01 1.0439161340492831e-02 0 0 0
2972 1 1.8600399643178161e+01 2.7087788846921541e+01 1.4408472668561982e+00 0 0 0
3003 1 1.7358194596705577e+01 2.8478435092036289e+01 2.9483296387233993e+00 0 0 0
3422 1 2.1445619877816572e+01 2.7169923877267522e+01 1.3851315522902004e+00 0 0 0
3453 1 2.0066734908833151e+01 2.8552561188551561e+01 2.9177402271019077e+00 0 0 0
3872 1 2.4310091118804145e+01 2.7099679278377476e+01 1.3157496320198268e+00 0 0 0
3903 1 2.2788916785640779e+01 2.8598513625740310e+01 2.8646219138505709e+00 0 0 0
4322 1 2.7033764919906393e+01 2.7132751500516441e+01 1.4778010299001436e+00 0 0 0
4353 1 2.5597604581030957e+01 2.8612576039865306e+01 2.9716639700911602e+00 0 0 0
4801 1 2.8482710005772056e+01 2.8420844031081565e+01 5.1457526006352151e-02 0 0 0
302 1 1.4422352192153578e+00 3.0036752455840723e+01 1.3864418864116179e+00 0 0 0
783 1 2.9180921745728146e+00 3.1324242865564067e+01 2.8301239673129652e+00 0 0 0
332 1 1.5244120078656813e+00 3.2884995130454669e+01 1.2592855485350782e+00 0 0 0
333 1 4.8871715422698969e-02 3.1419563611781587e+01 2.7789442469758532e+00 0 0 0
752 1 4.5021921250129866e+00 3.0047883242389240e+01 1.3231050637077491e+00 0 0 0
1233 1 6.0979756514558172e+00 3.1491794737626062e+01 2.7501985807559421e+00 0 0 0
782 1 4.4540295024714318e+00 3.2731143342099202e+01 1.3248029547250071e+00 0 0 0
1202 1 7.1829853597960591e+00 3.0034942696533271e+01 1.1758365549635319e+00 0 0 0
1683 1 8.7461058668104403e+00 3.1213434948249496e+01 2.4854566847464099e+00 0 0 0
1232 1 7.2775717712896508e+00 3.2702814659714278e+01 1.2304580176847917e+00 0 0 0
1652 1 1.0205467919818464e+01 2.9802255751378780e+01 1.1563790336231832e+00 0 0 0
1682 1 1.0185868110209396e+01 3.2730233564306459e+01 1.1627941040518792e+00 0 0 0
2133 1 1.1698764010364991e+01 3.1356560277126764e+01 2.6753552194124759e+00 0 0 0
2102 1 1.2981942400708368e+01 2.9902888059728937e+01 1.3534652460149892e+00 0 0 0
2132 1 1.3019838762012135e+01 3.2790740714371978e+01 1.3334675603337049e+00 0 0 0
2583 1 1.4485128452596436e+01 3.1304168671191295e+01 2.6452588922812286e+00 0 0 0
2581 1 1.4510783842028673e+01 3.1338324559718586e+01 1.8293575890332647e-02 0 0 0
2552 1 1.5911980616967758e+01 2.9859059057663124e+01 1.4440862005813464e+00 0 0 0
3002 1 1.8808528480426546e+01 2.9915908768081710e+01 1.5463929647153161e+00 0 0 0
3033 1 1.7299836245862259e+01 3.1367101141600070e+01 2.7506508419800668e+00 0 0 0
3032 1 1.8713616708122817e+01 3.2684013372842685e+01 1.4208226887630939e+00 0 0 0
2582 1 1.5863916949791264e+01 3.2803223497102721e+01 1.2992242262682312e+00 0 0 0
3031 1 1.7359787536414839e+01 3.1359399753322052e+01 2.7791310869808683e-02 0 0 0
3452 1 2.1481097201017686e+01 2.9983743998386672e+01 1.3776908447844742e+00 0 0 0
3483 1 2.0110911819561728e+01 3.1484643069645188e+01 2.8848166784820566e+00 0 0 0
3482 1 2.1485816456887378e+01 3.2829058646187988e+01 1.4518256694055787e+00 0 0 0
3902 1 2.4347172002727692e+01 2.9925697269342315e+01 1.3831233408561219e+00 0 0 0
3933 1 2.2890925239574880e+01 3.1329246272693560e+01 2.7422322221888376e+00 0 0 0
3932 1 2.4215602456435764e+01 3.2768688312716151e+01 1.3776187001636220e+00 0 0 0
4352 1 2.7095753509881074e+01 2.9844950016591667e+01 1.5394218482316626e+00 0 0 0
4383 1 2.5722343351632304e+01 3.1436661555706785e+01 2.8660725109058887e+00 0 0 0
4382 1 2.6949196529786860e+01 3.2815189952412894e+01 1.3648205037608401e+00 0 0 0
4833 1 2.8414248736693821e+01 3.1409036444956882e+01 2.7980782700584923e+00 0 0 0
813 1 2.9231513270360825e+00 3.4277145925644419e+01 2.8976220357716240e+00 0 0 0
362 1 1.5876852660618801e+00 3.5723415744135210e+01 1.3993068357814287e+00 0 0 0
363 1 1.1104167652311793e-02 3.4317623951306629e+01 2.6863411771482744e+00 0 0 0
1263 1 5.8863752904994806e+00 3.4160868270657787e+01 2.6963131443345985e+00 0 0 0
812 1 4.4257602663259954e+00 3.5652653214632664e+01 1.4941110458777838e+00 0 0 0
1713 1 8.8058412578733787e+00 3.4303094684103982e+01 2.5787794661634038e+00 0 0 0
1262 1 7.2331775026038105e+00 3.5648175691323658e+01 1.1578270844852350e+00 0 0 0
2163 1 1.1642176310961654e+01 3.4078422521328093e+01 2.5332797537541558e+00 0 0 0
1712 1 1.0196896216377942e+01 3.5592419557814594e+01 1.3185677457709264e+00 0 0 0
2162 1 1.2955907596039758e+01 3.5527046725920158e+01 1.2634898426289458e+00 0 0 0
2613 1 1.4370895403348428e+01 3.4238852579984979e+01 2.7448568949363468e+00 0 0 0
2612 1 1.5728063109356032e+01 3.5647324446243616e+01 1.3450083440161071e+00 0 0 0
3063 1 1.7321754919801929e+01 3.4210983065199855e+01 2.7464818081062083e+00 0 0 0
3062 1 1.8862938269923450e+01 3.5582483653066433e+01 1.4844977664881083e+00 0 0 0
3061 1 1.7179905073795464e+01 3.4149006217346709e+01 4.6475435245461938e-02 0 0 0
3513 1 2.0095202193178164e+01 3.4194568704570429e+01 2.8415684682692142e+00 0 0 0
3512 1 2.1489888506142602e+01 3.5570453456155818e+01 1.3744831898539409e+00 0 0 0
3963 1 2.2925869423913156e+01 3.4351003655321080e+01 2.7853443782735083e+00 0 0 0
3962 1 2.4266769278619478e+01 3.5662681019279063e+01 1.3667659825744327e+00 0 0 0
4413 1 2.5678594165499295e+01 3.4371039652028685e+01 2.7930991851216795e+00 0 0 0
4412 1 2.7027949756941219e+01 3.5771571962778737e+01 1.4093377305076988e+00 0 0 0
4411 1 2.5725822221833639e+01 3.4272222305431100e+01 4.2542921845201059e-02 0 0 0
4863 1 2.8434614622401714e+01 3.4338118801283741e+01 2.7140382705829849e+00 0 0 0
392 1 1.5134445336786715e+00 3.8577395707509638e+01 1.5519544436143400e+00 0 0 0
843 1 3.0295647658690252e+00 3.7148957353872817e+01 2.8996480643054756e+00 0 0 0
841 1 3.0860541704939477e+00 3.7076824634001881e+01 6.3889269104280583e-02 0 0 0
393 1 9.3386371305497554e-02 3.7050052611281544e+01 2.8089273223809719e+00 0 0 0
842 1 4.4119328083010689e+00 3.8502446679153110e+01 1.5611948150067221e+00 0 0 0
1293 1 5.8350778303699578e+00 3.7046663167303294e+01 2.8202115952962616e+00 0 0 0
1292 1 7.2888534309439654e+00 3.8476257501991242e+01 1.2798672402594673e+00 0 0 0
1743 1 8.8117621046429999e+00 3.7009071664533991e+01 2.6171395161175588e+00 0 0 0
1742 1 1.0288300315850215e+01 3.8556616109206857e+01 1.2897614486812385e+00 0 0 0
2193 1 1.1566405222661931e+01 3.7003232563529906e+01 2.6418611819321622e+00 0 0 0
2192 1 1.2912041502528197e+01 3.8499535538658648e+01 1.3031726049745502e+00 0 0 0
2643 1 1.4339657201849551e+01 3.7103547415375488e+01 2.7400158294219366e+00 0 0 0
2642 1 1.5870896398037914e+01 3.8461042483942677e+01 1.2759634800795987e+00 0 0 0
3092 1 1.8871994864045035e+01 3.8337683245004555e+01 1.4671051414575935e+00 0 0 0
3093 1 1.7309670309110409e+01 3.6921848426525187e+01 2.8804397204506187e+00 0 0 0
3091 1 1.7242084285407824e+01 3.6931551448159624e+01 7.0329731311431998e-02 0 0 0
3543 1 2.0236052638060539e+01 3.7023652317785150e+01 2.9879676699652444e+00 0 0 0
3542 1 2.1663001001147560e+01 3.8395800636633766e+01 1.4036676597148801e+00 0 0 0
3992 1 2.4314654686231108e+01 3.8521203788196857e+01 1.2708336549803358e+00 0 0 0
3993 1 2.2969665464105233e+01 3.7135345736819019e+01 2.8997266432000357e+00 0 0 0
4442 1 2.7115922820720922e+01 3.8542301427348093e+01 1.4388020440006812e+00 0 0 0
4443 1 2.5569921130610137e+01 3.7091675350619440e+01 2.8796403440075329e+00 0 0 0
4441 1 2.5649123084793416e+01 3.7030755204797828e+01 1.6074219927685127e-02 0 0 0
4893 1 2.8489889217094788e+01 3.7060115294667739e+01 2.8965923600891443e+00 0 0 0
4891 1 2.8495158641930729e+01 3.7090810382159177e+01 7.7298987861667709e-02 0 0 0
453 1 2.9980076813327154e+00 4.2826926216055028e+01 2.7245182831627539e+00 0 -1 0
422 1 1.4813070286154968e+00 4.1335503326213768e+01 1.4538553701339814e+00 0 0 0
873 1 2.9406795853141210e+00 4.0002674761905951e+01 2.9177369008421463e+00 0 0 0
871 1 3.0015501732538583e+00 3.9914938926944117e+01 2.6535979342846797e-02 0 0 0
423 1 2.0581745361397522e-03 4.0069650528046353e+01 2.7669599017992614e+00 0 0 0
903 1 5.8410668793099552e+00 4.2822322988219256e+01 2.7529049153049141e+00 0 -1 0
872 1 4.3129805806753305e+00 4.1318008532913680e+01 1.3544743911547146e+00 0 0 0
1323 1 5.9166734520853215e+00 3.9941127568071124e+01 2.6674126656222468e+00 0 0 0
1322 1 7.3018183999808688e+00 4.1416953713810017e+01 1.2976260627308893e+00 0 0 0
1773 1 8.6837540923101439e+00 4.0044476680596148e+01 2.7119721923391618e+00 0 0 0
1803 1 1.1584382364860762e+01 4.2696863163079186e+01 2.8204166672630087e+00 0 -1 0
1772 1 1.0113987763938740e+01 4.1430155894776291e+01 1.4645388551827490e+00 0 0 0
2223 1 1.1514892084583183e+01 3.9977420255472126e+01 2.7842559229284745e+00 0 0 0
2253 1 1.4489787639603311e+01 4.2765486313363368e+01 2.8519921831785040e+00 0 -1 0
2222 1 1.2863220315625217e+01 4.1354717887881179e+01 1.3941168312242997e+00 0 0 0
2673 1 1.4346321751874182e+01 4.0045103882938520e+01 2.7834922267886455e+00 0 0 0
2672 1 1.5748186346885868e+01 4.1384395843349338e+01 1.3294700437107794e+00 0 0 0
2671 1 1.4316823191996960e+01 3.9878225467887546e+01 5.1125242289371903e-02 0 0 0
2703 1 1.7379267355750841e+01 4.2709974763870420e+01 2.8329210521235377e+00 0 -1 0
3122 1 1.8710495369612165e+01 4.1320654527060981e+01 1.3697630622539669e+00 0 0 0
3123 1 1.7261420848819867e+01 3.9890122405292729e+01 2.6706441069413214e+00 0 0 0
3121 1 1.7315009543626168e+01 3.9821022389717896e+01 3.9137334453684509e-02 0 0 0
3153 1 2.0142145283853552e+01 4.2765513939391326e+01 2.8429188987909093e+00 0 -1 0
3573 1 2.0222744337817218e+01 3.9893358195399102e+01 2.9408076583205784e+00 0 0 0
3572 1 2.1605892656006461e+01 4.1345133725916213e+01 1.5035817219640677e+00 0 0 0
3571 1 2.0266363630905090e+01 3.9752781856478634e+01 1.4154044583723013e-01 0 0 0
3603 1 2.3001070610400422e+01 4.2743098773023860e+01 2.8350815381625543e+00 0 -1 0
4022 1 2.4425226319274792e+01 4.1308285091130472e+01 1.4791872988218926e+00 0 0 0
4023 1 2.3043883755940996e+01 3.9960517739399464e+01 2.9649797943652501e+00 0 0 0
3601 1 2.2992127771832340e+01 4.2822795778295671e+01 3.3789429161001576e-02 0 -1 0
4472 1 2.7129604970053663e+01 4.1496714127153950e+01 1.4304559978809175e+00 0 0 0
4473 1 2.5751985092775957e+01 3.9916898567538368e+01 2.7767995313340537e+00 0 0 0