LAMMPS data file via write_data, version 7 Aug 2019, timestep = 29000

9000 atoms
1 atom types

-1.2454929418246455e-04 5.7106124549294186e+01 xlo xhi
-9.3411970636848420e-05 4.2829593411970642e+01 ylo yhi
-9.3411970636848420e-05 4.2829593411970642e+01 zlo zhi

Masses

1 56

Atoms # atomic

2 1 1.6468055070977781e+00 1.4511252603628888e+00 1.4802028811711236e+00 0 0 0
483 1 3.0207517459617859e+00 2.9567460693964622e+00 3.0251703084388457e+00 0 0 0
453 1 3.0247154860079699e+00 4.2635720126475631e-02 2.9754885938271705e+00 0 0 0
481 1 3.0796269176061233e+00 2.9043052886459679e+00 3.6297171942562587e-02 0 0 0
451 1 3.0300063529384014e+00 1.4633195509088370e-01 5.0745476880865642e-02 0 0 0
3 1 1.8650748446459645e-01 7.6281007165583170e-02 3.0431250590473753e+00 0 0 0
31 1 1.7377623069206882e-01 3.0072370414779921e+00 1.8486512117042508e-01 0 0 0
33 1 1.7468904561904866e-01 2.9559697514623275e+00 2.8932825537364972e+00 0 0 0
452 1 4.5553257273214856e+00 1.5914985616797659e+00 1.5729406098294845e+00 0 0 0
933 1 6.0299956999690485e+00 2.8893971825923592e+00 2.9978500310515090e+00 0 0 0
931 1 5.9120128222889976e+00 2.9792958340271576e+00 1.1297905573370096e-01 0 0 0
903 1 5.8629427451565999e+00 1.1224178412716343e-01 3.0108019377522357e+00 0 0 0
901 1 5.8742238995703238e+00 6.3277043442188929e-02 3.9307085498992783e-02 0 0 0
902 1 7.3514774384447916e+00 1.5390427133875537e+00 1.4899014014098491e+00 0 0 0
1383 1 8.8426810152376785e+00 2.9569704371110652e+00 2.9884810276176728e+00 0 0 0
1351 1 8.7966067741676248e+00 2.3031116080040448e-01 8.6228749081309647e-02 0 0 0
1381 1 8.8230390932680756e+00 2.9617763577080254e+00 1.0589504666473040e-01 0 0 0
1353 1 8.7520252777349441e+00 4.1117833243649565e-02 2.8855199221058796e+00 0 0 0
1352 1 1.0112828690819178e+01 1.4961875958830155e+00 1.5106552957354280e+00 0 0 0
1833 1 1.1597808235863949e+01 2.9065730827233232e+00 3.1030873092889482e+00 0 0 0
1803 1 1.1609796627007693e+01 6.8228036946846440e-02 2.9972943177964724e+00 0 0 0
1831 1 1.1596241635963306e+01 2.7935643895237048e+00 8.6832823730368602e-02 0 0 0
1801 1 1.1695429849231481e+01 1.0868138318801215e-01 4.7798760179429245e-02 0 0 0
1802 1 1.2986980974391519e+01 1.5059800441637317e+00 1.5636096223190430e+00 0 0 0
2283 1 1.4363547683188230e+01 2.9101470786165877e+00 2.9409701319272701e+00 0 0 0
2252 1 1.5861752465670508e+01 1.3902679680633550e+00 1.4459805303700335e+00 0 0 0
2253 1 1.4517230307005610e+01 4.7289198224589768e-02 2.9485765708037919e+00 0 0 0
2281 1 1.4318982497213653e+01 2.8741879607323781e+00 8.5445446977509859e-02 0 0 0
2251 1 1.4463370736381165e+01 6.6485373901983114e-02 1.6058731777091259e-02 0 0 0
2702 1 1.8627986279889999e+01 1.5136057063870092e+00 1.2863988141409577e+00 0 0 0
2733 1 1.7361833959782039e+01 2.8618840138059167e+00 2.8561696555712324e+00 0 0 0
2703 1 1.7296958160166067e+01 7.6886506217561559e-02 2.9113262647520659e+00 0 0 0
2731 1 1.7269969412514623e+01 2.9030113232408903e+00 7.5483237424842711e-02 0 0 0
3183 1 2.0237036140627087e+01 2.8413525263020167e+00 2.7335404783134631e+00 0 0 0
3152 1 2.1556449495530430e+01 1.4375209008734522e+00 1.4366141683837506e+00 0 0 0
3153 1 2.0052368435046574e+01 3.3696890509532888e-02 2.7368623466949327e+00 0 0 0
3181 1 2.0092430876372639e+01 2.9382649048948335e+00 8.4014765499560440e-03 0 0 0
3602 1 2.4147569467859171e+01 1.3464095940499490e+00 1.5004717040831188e+00 0 0 0
3633 1 2.2882681159956949e+01 2.9726641451454641e+00 2.8327094002061282e+00 0 0 0
3631 1 2.2900551375462431e+01 2.8889428739440604e+00 5.7988828204251983e-02 0 0 0
4052 1 2.7019442176538469e+01 1.3948495296634233e+00 1.5189901789579046e+00 0 0 0
4083 1 2.5595283389555011e+01 2.8662673587839267e+00 3.0026952533330951e+00 0 0 0
4503 1 2.8411562014158186e+01 4.6700863162269200e-02 2.9501729348712100e+00 0 0 0
4533 1 2.8505269930541392e+01 2.9534163578488180e+00 2.9018913348319080e+00 0 0 0
32 1 1.6055652183350593e+00 4.2815550449572761e+00 1.5197967199375209e+00 0 0 0
513 1 3.0217208847497949e+00 5.8384535616681532e+00 2.9829029007508709e+00 0 0 0
511 1 3.1680983877390729e+00 5.6127773263093923e+00 1.1079450551938613e-01 0 0 0
61 1 1.6320101655320951e-01 5.7061119095417263e+00 8.9888314455144780e-02 0 0 0
63 1 1.3024529832820750e-01 5.6823103227140574e+00 2.9130418095974888e+00 0 0 0
482 1 4.5501522585183558e+00 4.2757480925242586e+00 1.5261618146499241e+00 0 0 0
963 1 6.0246921417455708e+00 5.7199590391405017e+00 2.9578147471835106e+00 0 0 0
961 1 5.9894990698991784e+00 5.7364462143952668e+00 1.8888617074925687e-01 0 0 0
932 1 7.4249566351062963e+00 4.3815107319502848e+00 1.4297972429092169e+00 0 0 0
1413 1 8.8830049972480793e+00 5.7151680682734440e+00 2.7670666492624312e+00 0 0 0
1411 1 8.8256187826025201e+00 5.6757743806026468e+00 2.7305693171662426e-02 0 0 0
1382 1 1.0263392629618719e+01 4.2675722356110022e+00 1.5689342388818985e+00 0 0 0
1863 1 1.1629439248724863e+01 5.7591527197126497e+00 2.9209652571329734e+00 0 0 0
1832 1 1.2803998976378525e+01 4.2957195813722819e+00 1.5895204263965319e+00 0 0 0
2313 1 1.4466972508959492e+01 5.8090972992495065e+00 2.7825370834253369e+00 0 0 0
2282 1 1.5859737896704800e+01 4.3470432431948938e+00 1.4707533382533717e+00 0 0 0
2311 1 1.4440954077944060e+01 5.6680373435345688e+00 1.8384640359262761e-01 0 0 0
2732 1 1.8620588170804186e+01 4.3230359336273079e+00 1.4848192392570461e+00 0 0 0
2763 1 1.7202594231800273e+01 5.7012000569833132e+00 2.9262249488318872e+00 0 0 0
2761 1 1.7210626432425464e+01 5.6767253743260593e+00 3.4633980521995511e-02 0 0 0
3213 1 2.0114163341353812e+01 5.7939908619395304e+00 2.8345708332871267e+00 0 0 0
3182 1 2.1514591009187164e+01 4.4290535963390729e+00 1.3844610455862352e+00 0 0 0
3632 1 2.4339787877853652e+01 4.2441936928039938e+00 1.4848439825993756e+00 0 0 0
3663 1 2.2928744023679055e+01 5.9284384336532723e+00 2.7151365845463449e+00 0 0 0
4082 1 2.7044940164665672e+01 4.2032212077605600e+00 1.3781687829516205e+00 0 0 0
4113 1 2.5634334716143954e+01 5.8037777024705717e+00 2.7863721927141891e+00 0 0 0
4563 1 2.8422803498457231e+01 5.7196744667923598e+00 2.7853979064747594e+00 0 0 0
62 1 1.5434242645776159e+00 7.0526001912882412e+00 1.4911718539558174e+00 0 0 0
543 1 3.0147776629411793e+00 8.3970455551945538e+00 2.8905578708309934e+00 0 0 0
541 1 3.0863074785169839e+00 8.4837356414444756e+00 3.9737489344354060e-02 0 0 0
91 1 2.0001911904264483e-01 8.5261814432986895e+00 9.5599356861156698e-02 0 0 0
93 1 1.5240350750609075e-01 8.4254693667428757e+00 2.9580118205671644e+00 0 0 0
512 1 4.5744697604582134e+00 7.1624366594038769e+00 1.5259441480929254e+00 0 0 0
993 1 5.9974888419927597e+00 8.6023407265503167e+00 2.9198267841481274e+00 0 0 0
991 1 5.9968075022791973e+00 8.5910040862835348e+00 1.1131011709564133e-01 0 0 0
962 1 7.5606797206436029e+00 7.2027930680189787e+00 1.5175051525292305e+00 0 0 0
1443 1 8.8744540732851060e+00 8.6438315311404814e+00 2.9021246165458412e+00 0 0 0
1441 1 8.7578095230265713e+00 8.6333424244596557e+00 1.1524726650774035e-01 0 0 0
1412 1 1.0275851792520081e+01 7.1127250789732939e+00 1.4720181217700483e+00 0 0 0
1893 1 1.1796743696749344e+01 8.5152568125818942e+00 2.8191241819770663e+00 0 0 0
1891 1 1.1671962180330080e+01 8.6257126665525128e+00 6.8373380578741205e-02 0 0 0
1862 1 1.2974318476162436e+01 7.1157001143833432e+00 1.4232491378045702e+00 0 0 0
2343 1 1.4407461620003131e+01 8.5762190291625480e+00 2.8869273302918108e+00 0 0 0
2341 1 1.4418302714415978e+01 8.5062807796072324e+00 2.1731725930017376e-02 0 0 0
2312 1 1.5873495832131335e+01 7.2921321034921682e+00 1.3903392887610666e+00 0 0 0
2762 1 1.8518777423926007e+01 7.1420209102902863e+00 1.4373007273065928e+00 0 0 0
2793 1 1.7164997635690575e+01 8.7066737844943329e+00 2.8830818552562634e+00 0 0 0
2791 1 1.7169924614841399e+01 8.6082611885559928e+00 4.6943158832412735e-02 0 0 0
3212 1 2.1513736841377320e+01 7.3208057963097328e+00 1.3431508499911962e+00 0 0 0
3243 1 2.0073959081793127e+01 8.6754527119042031e+00 2.5879409431728098e+00 0 0 0
3662 1 2.4328296424038683e+01 7.1246572868632629e+00 1.3901249308795880e+00 0 0 0
3693 1 2.2905015415009753e+01 8.6608569325793319e+00 2.7384535822627081e+00 0 0 0
4112 1 2.7157985190771903e+01 7.1130419870154702e+00 1.2900113307482384e+00 0 0 0
4143 1 2.5758765938544148e+01 8.6531564956440743e+00 2.9303231954981834e+00 0 0 0
4593 1 2.8462207349001989e+01 8.5789516794810670e+00 2.8772416051238063e+00 0 0 0
92 1 1.6165990446627392e+00 9.9165633307278664e+00 1.4837973264961959e+00 0 0 0
122 1 1.7278719361353703e+00 1.2940496771961138e+01 1.6022038123096640e+00 0 0 0
573 1 3.1041108484099467e+00 1.1382330093364041e+01 3.0724941404930108e+00 0 0 0
571 1 3.0303943391931876e+00 1.1333462258787568e+01 1.6980015225653242e-01 0 0 0
123 1 2.3718347560736047e-01 1.1363453417728552e+01 3.0132085210375963e+00 0 0 0
121 1 1.4264818106839694e-01 1.1424454168245900e+01 6.7722723841428634e-02 0 0 0
542 1 4.4659802720293635e+00 9.9681453455764597e+00 1.5354494948676936e+00 0 0 0
1023 1 5.9302435762158954e+00 1.1348156507015782e+01 3.0247093426523133e+00 0 0 0
572 1 4.4917541621395607e+00 1.2878789945276477e+01 1.4914735235549077e+00 0 0 0
992 1 7.4022151708361994e+00 1.0051207942571320e+01 1.5386317619071110e+00 0 0 0
1473 1 8.7932273839747737e+00 1.1435490303125258e+01 2.9237714201350538e+00 0 0 0
1022 1 7.2612880187233859e+00 1.2862220555589827e+01 1.5374133335163838e+00 0 0 0
1471 1 8.8680676457026113e+00 1.1444714548278904e+01 6.9077248205296371e-02 0 0 0
1442 1 1.0392016860897908e+01 9.9233116091216740e+00 1.4976784496129376e+00 0 0 0
1923 1 1.1600361084623383e+01 1.1403375837019448e+01 2.8361629961677539e+00 0 0 0
1472 1 1.0073956456442842e+01 1.2751075079767510e+01 1.4742226058939734e+00 0 0 0
1921 1 1.1565026985575996e+01 1.1374671760157664e+01 5.9087830850258110e-03 0 0 0
2342 1 1.5663857986871797e+01 1.0034843928511279e+01 1.4867823647933112e+00 0 0 0
1892 1 1.3084982118504072e+01 9.9633188618694017e+00 1.4948491466456615e+00 0 0 0
1922 1 1.3044544803772025e+01 1.2856870902818690e+01 1.4206177497417793e+00 0 0 0
2373 1 1.4334514304219290e+01 1.1456321346745041e+01 2.9191693105473133e+00 0 0 0
2372 1 1.5768354030996846e+01 1.2824746551898185e+01 1.4043261026076348e+00 0 0 0
2792 1 1.8527778552336933e+01 9.9257192596152901e+00 1.4386346440840880e+00 0 0 0
2823 1 1.7163951251570445e+01 1.1367793133832945e+01 2.8240373167047568e+00 0 0 0
2822 1 1.8710818154471983e+01 1.2794965416334831e+01 1.4284128458915106e+00 0 0 0
3242 1 2.1348231138090409e+01 1.0076742153462520e+01 1.3203558113426486e+00 0 0 0
3273 1 2.0088154576698173e+01 1.1358089538568141e+01 2.8644481537033744e+00 0 0 0
3272 1 2.1357165911031139e+01 1.2838146344206613e+01 1.3777905567471342e+00 0 0 0
3692 1 2.4385714748164052e+01 9.9096345233477710e+00 1.2504912074582577e+00 0 0 0
3723 1 2.2776204249158084e+01 1.1480518414060223e+01 2.6878734301553231e+00 0 0 0
3722 1 2.4142662927605233e+01 1.2892753846797598e+01 1.1189851498827221e+00 0 0 0
4142 1 2.7236471091791095e+01 1.0002493184974018e+01 1.3881770234978381e+00 0 0 0
4173 1 2.5582835343826414e+01 1.1506391588460207e+01 2.7242429652789624e+00 0 0 0
4172 1 2.7029766551881085e+01 1.2747772314208412e+01 1.4391538691997399e+00 0 0 0
4171 1 2.5690479940426034e+01 1.1488229687137599e+01 2.5142738482266225e-02 0 0 0
4623 1 2.8512810076061392e+01 1.1490830230611111e+01 2.9215613330712942e+00 0 0 0
603 1 3.0610014235972303e+00 1.4297172829702424e+01 2.9342712818525758e+00 0 0 0
152 1 1.6024622909582751e+00 1.5727836907193844e+01 1.4331738927945390e+00 0 0 0
601 1 3.0765897962232174e+00 1.4287929855601371e+01 5.3669769660264342e-02 0 0 0
151 1 1.6012451772391539e-01 1.4336076181998356e+01 8.5597301527390313e-02 0 0 0
153 1 1.0550613169162008e-01 1.4247585177875763e+01 2.8827704547323894e+00 0 0 0
1053 1 5.9110478129850019e+00 1.4267004601623293e+01 2.8778351334536616e+00 0 0 0
602 1 4.5544949337264740e+00 1.5676834229551460e+01 1.4543354525575181e+00 0 0 0
1051 1 5.9952679913851004e+00 1.4312350016918064e+01 1.0209521581909797e-01 0 0 0
1503 1 8.8008975279424515e+00 1.4281089550970696e+01 2.9051265207653412e+00 0 0 0
1052 1 7.4155964236822483e+00 1.5749072618599300e+01 1.5607238537770065e+00 0 0 0
1501 1 8.8567665786132430e+00 1.4254038485155881e+01 1.9836363794370193e-01 0 0 0
1953 1 1.1638550595989889e+01 1.4192289248324228e+01 2.8839226586636926e+00 0 0 0
1502 1 1.0296992770252903e+01 1.5648077657914458e+01 1.5321532571295837e+00 0 0 0
1952 1 1.3015446470256579e+01 1.5675489528135154e+01 1.5505052753824733e+00 0 0 0
2403 1 1.4348134600217074e+01 1.4201090959111999e+01 2.8129035941954212e+00 0 0 0
2401 1 1.4394571180706576e+01 1.4407917780983777e+01 -1.4350338211954750e-05 0 0 0
2402 1 1.5963195537468504e+01 1.5763524888900834e+01 1.4796403356345935e+00 0 0 0
2853 1 1.7252760617361780e+01 1.4238984774834330e+01 2.8892914212411629e+00 0 0 0
2852 1 1.8592451564972460e+01 1.5718386239986208e+01 1.3501910522421392e+00 0 0 0
3303 1 2.0038713904145556e+01 1.4260706709527755e+01 2.8736789323970271e+00 0 0 0
3302 1 2.1403818366768025e+01 1.5606459121829175e+01 1.3289448013508247e+00 0 0 0
3753 1 2.2921873086181378e+01 1.4128402595073396e+01 2.7688611554922997e+00 0 0 0
3752 1 2.4189881824611358e+01 1.5663775772753231e+01 1.4280470466204724e+00 0 0 0
4203 1 2.5704865024880146e+01 1.4240851811248781e+01 2.7353673021628779e+00 0 0 0
4202 1 2.7039431163088185e+01 1.5522613195850260e+01 1.2831451115329875e+00 0 0 0
4653 1 2.8542610802809712e+01 1.4230686608650156e+01 2.9264756269836307e+00 0 0 0
182 1 1.6905129230234139e+00 1.8505245282781015e+01 1.4175109340732415e+00 0 0 0
633 1 3.0763174884307749e+00 1.7184092153235959e+01 2.8552938656538789e+00 0 0 0
183 1 1.4490281772348029e-01 1.7123122257809474e+01 2.8231252064533479e+00 0 0 0
632 1 4.6797229863015195e+00 1.8402148573187230e+01 1.4881773297038683e+00 0 0 0
1083 1 5.9006546042081647e+00 1.7077511748460505e+01 3.0350586596161682e+00 0 0 0
1081 1 6.0660161412671512e+00 1.7038291584180463e+01 2.7518056785519357e-02 0 0 0
1082 1 7.4961315358451159e+00 1.8611978921262057e+01 1.5544125353636973e+00 0 0 0
1533 1 8.8766618276253517e+00 1.7031810299552198e+01 3.0686378038767730e+00 0 0 0
1531 1 8.8783601790890430e+00 1.7163601233544142e+01 5.4161159555809267e-02 0 0 0
1532 1 1.0284762829900266e+01 1.8409151135024619e+01 1.5054411056416201e+00 0 0 0
1983 1 1.1591576044088303e+01 1.6959481988162789e+01 2.9827084670717596e+00 0 0 0
1981 1 1.1704053901171624e+01 1.7143520859454419e+01 6.7135528501544209e-02 0 0 0
1982 1 1.2973137965568183e+01 1.8577083056401687e+01 1.5731633480967380e+00 0 0 0
2433 1 1.4417821315531478e+01 1.7091031417978048e+01 2.8865556628575439e+00 0 0 0
2431 1 1.4374942265278214e+01 1.7001088660674476e+01 8.5680676982072157e-02 0 0 0
2432 1 1.5874565380110701e+01 1.8518644172049026e+01 1.4179712220040241e+00 0 0 0
2882 1 1.8478588284940923e+01 1.8527385641581077e+01 1.5315888871959611e+00 0 0 0
2883 1 1.7140944053878215e+01 1.7208794249841045e+01 2.9192329640981063e+00 0 0 0
3333 1 1.9934736169311407e+01 1.6976365079329657e+01 2.8458898925091498e+00 0 0 0
3361 1 2.1211145471395326e+01 1.8593612819893227e+01 1.3227305043886712e+00 0 0 0
3332 1 2.2767540836479405e+01 1.7163973532242931e+01 2.7264526489623062e+00 0 0 0
3811 1 2.4263445397091807e+01 1.8435938308297565e+01 1.4038910338416146e+00 0 0 0
3781 1 2.2787492772489905e+01 1.7070822106965647e+01 6.8024756837851197e-02 0 0 0
4232 1 2.7015991260818634e+01 1.8525760313566263e+01 1.4170910478460386e+00 0 0 0
4233 1 2.5702049429013790e+01 1.6915481754038417e+01 2.8074463494428512e+00 0 0 0
4683 1 2.8551338765737544e+01 1.7005369973037425e+01 2.8851211242591290e+00 0 0 0
212 1 1.5846169759403979e+00 2.1426264074800809e+01 1.5111258212955196e+00 0 0 0
693 1 3.0750239638639747e+00 2.2779626760481882e+01 3.0303750218696157e+00 0 0 0
691 1 3.0604750459614403e+00 2.2791682153528093e+01 1.2626094949769293e-01 0 0 0
213 1 1.5854509519921406e-01 1.9975799590856241e+01 2.7294656128444599e+00 0 0 0
243 1 3.2607406695353652e-01 2.2852875614019379e+01 2.8211151574013109e+00 0 0 0
663 1 3.2110008579191622e+00 1.9957715024718496e+01 2.7977006982345864e+00 0 0 0
662 1 4.5351191276507263e+00 2.1383935405814977e+01 1.4793759783634994e+00 0 0 0
1113 1 6.0034522380061537e+00 1.9934148501735049e+01 2.8126025443173317e+00 0 0 0
1143 1 6.0165390697839820e+00 2.2716372206579702e+01 2.9648745462224166e+00 0 0 0
1111 1 6.1138341223285577e+00 1.9918075964496317e+01 9.9410533637969270e-02 0 0 0
1141 1 5.8576876403752420e+00 2.2851514444135187e+01 8.3892184352292384e-02 0 0 0
661 1 3.2331426644758925e+00 1.9880703808161652e+01 1.0298364948120876e-01 0 0 0
1112 1 7.3379463841676857e+00 2.1499144820853253e+01 1.5933769626326071e+00 0 0 0
1563 1 8.8626787725848910e+00 1.9994603988061964e+01 2.9020820900301967e+00 0 0 0
1593 1 8.7184098495248001e+00 2.2923431629260815e+01 2.9744252811140059e+00 0 0 0
1591 1 8.8108763047764285e+00 2.2951220629413278e+01 2.9864354952480122e-02 0 0 0
1561 1 8.9129034463981345e+00 1.9938154722263537e+01 1.0150446012393505e-01 0 0 0
2013 1 1.1745675351133075e+01 1.9946130246837093e+01 2.8942318748575913e+00 0 0 0
1562 1 1.0266946526091369e+01 2.1357465731099420e+01 1.4937837875811157e+00 0 0 0
2043 1 1.1571791167539953e+01 2.2841234021478758e+01 2.8858857774287472e+00 0 0 0
2011 1 1.1588673792211640e+01 2.0006733926650671e+01 1.6427477361548171e-01 0 0 0
2012 1 1.3037783640355096e+01 2.1519617285882855e+01 1.4191882585728590e+00 0 0 0
2463 1 1.4424825819418340e+01 1.9927043445150698e+01 2.9504829655521743e+00 0 0 0
2493 1 1.4449770476512578e+01 2.2905253124245103e+01 2.8654558713324123e+00 0 0 0
2461 1 1.4388700351107952e+01 2.0048232728815922e+01 3.4777256067292969e-02 0 0 0
2462 1 1.5871311834103299e+01 2.1381631508690241e+01 1.5043675509367944e+00 0 0 0
2912 1 1.8504321923707550e+01 2.1447636154880364e+01 1.3966169853088224e+00 0 0 0
2913 1 1.7192205456587352e+01 1.9975638307402562e+01 3.0053098649254228e+00 0 0 0
2943 1 1.7167803309995342e+01 2.2875849840540237e+01 2.8256963081916613e+00 0 0 0
2941 1 1.7039544889477160e+01 2.2874807560284943e+01 6.1647660046233455e-03 0 0 0
2911 1 1.7252576611439807e+01 1.9947303394471000e+01 6.3526104470859934e-02 0 0 0
3363 1 1.9879009159324944e+01 1.9977581370623092e+01 2.7913260394911243e+00 0 0 0
3362 1 2.1310185439392061e+01 2.1448365049899984e+01 1.4291574734048471e+00 0 0 0
3393 1 1.9886475100839881e+01 2.2609533604544328e+01 2.8185897323462399e+00 0 0 0
3813 1 2.2802318918009696e+01 1.9844308533767993e+01 2.6064081097965759e+00 0 0 0
3812 1 2.4242943184549667e+01 2.1396480334046721e+01 1.3236490554844051e+00 0 0 0
3843 1 2.2837817598486129e+01 2.2656396944096507e+01 2.7223696103747965e+00 0 0 0
3869 1 2.2839336333433248e+01 2.0012412440097616e+01 7.9953026581968345e-02 0 0 1
4262 1 2.7099201560499910e+01 2.1336658198094490e+01 1.4051237428863053e+00 0 0 0
4263 1 2.5739854458892008e+01 1.9959733604768708e+01 2.8141932513251402e+00 0 0 0
3844 1 2.5782073089535064e+01 2.2796534298183872e+01 2.7764428460693003e+00 0 0 0
3782 1 2.5727685723608708e+01 2.0015861609806436e+01 8.3393014906526730e-02 0 0 0
242 1 1.6809038421868681e+00 2.4259902256757876e+01 1.4036149480644702e+00 0 0 0
723 1 3.1554619442549474e+00 2.5799631524426410e+01 2.8993468254028647e+00 0 0 0
273 1 1.6312355419253941e-01 2.5823330924009518e+01 2.9850982421518695e+00 0 0 0
271 1 9.3139327517192769e-02 2.5713615555124058e+01 2.8349901867308347e-03 0 0 0
692 1 4.4507851159907981e+00 2.4255489572192424e+01 1.5800404069622207e+00 0 0 0
1173 1 6.0322485525151457e+00 2.5718538349690007e+01 2.8745805803768740e+00 0 0 0
1171 1 5.8877329185301521e+00 2.5714971435139400e+01 6.0209995483602480e-02 0 0 0
1142 1 7.3746025650189821e+00 2.4257327902938368e+01 1.4498078679940787e+00 0 0 0
1623 1 8.7575940369046315e+00 2.5609034853491522e+01 2.8704681605342270e+00 0 0 0
1621 1 8.7432125854500100e+00 2.5728158658428761e+01 1.1932396526874101e-01 0 0 0
1592 1 1.0126692657533134e+01 2.4156650295240606e+01 1.4260585566595183e+00 0 0 0
2073 1 1.1656021751698866e+01 2.5683556046138946e+01 2.8843111465852362e+00 0 0 0
2071 1 1.1614311551374586e+01 2.5628133608176864e+01 7.5958631895936435e-02 0 0 0
2042 1 1.3035819823754030e+01 2.4198408716908144e+01 1.4239089810578751e+00 0 0 0
2523 1 1.4423985576690830e+01 2.5681964552506781e+01 2.9603337272452968e+00 0 0 0
2521 1 1.4270277181699768e+01 2.5614557325658605e+01 1.1887010329509376e-01 0 0 0
2492 1 1.5878453777404069e+01 2.4270826517776133e+01 1.4262309723775972e+00 0 0 0
2942 1 1.8654706708739752e+01 2.4192042762535294e+01 1.4297454918178960e+00 0 0 0
2973 1 1.7333130515414933e+01 2.5598949129220145e+01 2.8545917026931935e+00 0 0 0
3423 1 2.0118068581700925e+01 2.5671230324847151e+01 2.7408230563294853e+00 0 0 0
3392 1 2.1391296649952100e+01 2.4163749256821227e+01 1.4358664781312092e+00 0 0 0
3421 1 2.0004897174869257e+01 2.5670653569769105e+01 2.9887688169573323e-02 0 0 0
3842 1 2.4185949894536535e+01 2.4194510078272291e+01 1.3644049843174644e+00 0 0 0
3871 1 2.2867112861313558e+01 2.5541204075966839e+01 2.8615648063266854e+00 0 0 0
4292 1 2.7104138431864886e+01 2.4318077709396910e+01 1.3669937389909337e+00 0 0 0
4323 1 2.5681075207133041e+01 2.5645096475978111e+01 2.7481772784979892e+00 0 0 0
4773 1 2.8540561718631871e+01 2.5643290220045674e+01 2.8969877889499553e+00 0 0 0
272 1 1.6655315667150590e+00 2.7142874707742742e+01 1.2682387566926503e+00 0 0 0
753 1 3.0827374932570200e+00 2.8539083840813472e+01 2.8166390382996931e+00 0 0 0
301 1 2.1214731671563272e-01 2.8507484875138310e+01 5.4578155100422521e-02 0 0 0
303 1 1.7150233702766116e-01 2.8771267705141337e+01 2.8101330120455845e+00 0 0 0
722 1 4.4795802877746151e+00 2.7219456546105921e+01 1.4482486539538770e+00 0 0 0
1203 1 5.9883602093387793e+00 2.8633453980664232e+01 2.8951942987620476e+00 0 0 0
1201 1 5.9500900425163872e+00 2.8697951002503842e+01 9.2679759384135710e-02 0 0 0
751 1 3.2128202271789230e+00 2.8680320722651008e+01 2.1466254094331744e-02 0 0 0
1172 1 7.3080688479603824e+00 2.7139059136338616e+01 1.3390819346588676e+00 0 0 0
1653 1 8.8929672995153588e+00 2.8445948921184129e+01 2.7968030028056790e+00 0 0 0
1651 1 8.7335436695647761e+00 2.8585925434252516e+01 1.9936403642780931e-02 0 0 0
1622 1 1.0233083334497277e+01 2.7020219915451587e+01 1.4252515866651481e+00 0 0 0
2103 1 1.1695562236083212e+01 2.8522581843156601e+01 2.7403219877124076e+00 0 0 0
2072 1 1.3051822880771935e+01 2.7101250015189681e+01 1.4443802352919366e+00 0 0 0
2553 1 1.4484303845677299e+01 2.8598792870160391e+01 2.7271792601857969e+00 0 0 0
2522 1 1.5846081457303619e+01 2.7056382998301689e+01 1.3773440724758688e+00 0 0 0
2972 1 1.8634906880874855e+01 2.7177278934839169e+01 1.4587616527676588e+00 0 0 0
3003 1 1.7136686241082071e+01 2.8560837304811237e+01 2.8238652772708033e+00 0 0 0
3001 1 1.7155414599228497e+01 2.8588875003658156e+01 4.3931006727113697e-02 0 0 0
3422 1 2.1515202572794106e+01 2.7046321871860211e+01 1.2634829692395184e+00 0 0 0
3453 1 2.0054133738423509e+01 2.8576875742305692e+01 2.7897755343457602e+00 0 0 0
3903 1 2.2890521408679042e+01 2.8676728994006687e+01 2.7577000363695023e+00 0 0 0
3872 1 2.4227910578359097e+01 2.7040771538367061e+01 1.4969284140603358e+00 0 0 0
4322 1 2.7158636892020660e+01 2.7124476764454954e+01 1.4393812788925189e+00 0 0 0
4353 1 2.5646685246475602e+01 2.8559487539250785e+01 2.8597324108334568e+00 0 0 0
4351 1 2.5785914382098770e+01 2.8350562475957187e+01 1.0069473514022154e-01 0 0 0
4803 1 2.8537043128062653e+01 2.8488176389675399e+01 2.9282058514279621e+00 0 0 0
302 1 1.6295962288297514e+00 3.0163088926228831e+01 1.4985185761651765e+00 0 0 0
783 1 2.9423414728874109e+00 3.1548398850575708e+01 2.8885400120695222e+00 0 0 0
332 1 1.5483828524789944e+00 3.2822406721156064e+01 1.4880618503526419e+00 0 0 0
781 1 3.0691506387421570e+00 3.1442246865632683e+01 9.7377023266808749e-02 0 0 0
331 1 1.7908139166793802e-01 3.1394169186517964e+01 6.1498798564206550e-02 0 0 0
333 1 2.4760108485374133e-02 3.1425625979708538e+01 2.8230778064098536e+00 0 0 0
752 1 4.4493109585745145e+00 3.0089889585635294e+01 1.5560672246834024e+00 0 0 0
1233 1 5.8804051040368535e+00 3.1554332804803128e+01 2.9407520423977274e+00 0 0 0
1231 1 5.9935931611802680e+00 3.1450309473093654e+01 3.0252721538831767e-02 0 0 0
1202 1 7.3845444324705536e+00 3.0002153191477817e+01 1.6209162210995243e+00 0 0 0
1683 1 8.9750125548160380e+00 3.1390244703042278e+01 2.8502408647716804e+00 0 0 0
1232 1 7.4632801515541685e+00 3.2876725168531230e+01 1.4002535682342747e+00 0 0 0
1652 1 1.0275344043081134e+01 2.9985564110022771e+01 1.2438943598673164e+00 0 0 0
2133 1 1.1625096180684858e+01 3.1489865006072879e+01 2.8322159106413185e+00 0 0 0
1682 1 1.0258246655174922e+01 3.2809361271307488e+01 1.3254782033378618e+00 0 0 0
2132 1 1.3144481962596663e+01 3.2936989806326409e+01 1.3881232591517443e+00 0 0 0
2102 1 1.3034155798101024e+01 2.9983209921425125e+01 1.2987537342769233e+00 0 0 0
2583 1 1.4427268274859058e+01 3.1459147343979321e+01 2.7689635414851552e+00 0 0 0
2552 1 1.5830671353606958e+01 3.0034547246709447e+01 1.3894358489860827e+00 0 0 0
2582 1 1.5850828151646498e+01 3.2831780768628043e+01 1.3725880547020903e+00 0 0 0
3002 1 1.8692969131397160e+01 3.0034270898402493e+01 1.3518103723126336e+00 0 0 0
3033 1 1.7237571978472197e+01 3.1457297632294225e+01 2.7238811445615752e+00 0 0 0
3032 1 1.8598954229380251e+01 3.2924207010662599e+01 1.3239793419991635e+00 0 0 0
3483 1 2.0008972847270336e+01 3.1397112867507072e+01 2.8027284604560978e+00 0 0 0
3931 1 2.1390444288779374e+01 2.9958209536752531e+01 1.3379804786384017e+00 0 0 0
3482 1 2.1342237207782567e+01 3.2944250777513666e+01 1.2825588617352521e+00 0 0 0
3902 1 2.4418016017471700e+01 3.0009620129465009e+01 1.4010384082506939e+00 0 0 0
3933 1 2.2777783287014028e+01 3.1484652226114136e+01 2.6210143659987213e+00 0 0 0
3932 1 2.4288974540102004e+01 3.2920647140855174e+01 1.4133602827033425e+00 0 0 0
4352 1 2.7188484809661471e+01 3.0034183775738473e+01 1.4384947321443891e+00 0 0 0
4383 1 2.5709797612315555e+01 3.1511334967632113e+01 2.8258679990806921e+00 0 0 0
4382 1 2.7034307744882465e+01 3.2884757267197081e+01 1.2728747325174714e+00 0 0 0
4381 1 2.5594698723350735e+01 3.1485125977157196e+01 6.1099119859941535e-02 0 0 0
4833 1 2.8387969730492081e+01 3.1541915247828122e+01 2.9254030698104097e+00 0 0 0
813 1 2.8459423074711685e+00 3.4345167358248688e+01 3.0039464379816354e+00 0 0 0
362 1 1.6271634773958765e+00 3.5700057605765835e+01 1.5605511583190905e+00 0 0 0
811 1 2.9936677707993260e+00 3.4155917214821827e+01 1.6530717695365382e-01 0 0 0
363 1 2.1971755010627786e-02 3.4381071682357124e+01 3.1383637323752795e+00 0 0 0
361 1 2.1891873174597704e-01 3.4315906499133810e+01 1.4899948638978489e-01 0 0 0
782 1 4.5740432726767537e+00 3.3003591507974299e+01 1.5106288727299644e+00 0 0 0
1263 1 6.0288840915163169e+00 3.4441623503863589e+01 2.9353417880466486e+00 0 0 0
812 1 4.3669916936163498e+00 3.5707364806202065e+01 1.6872254070202910e+00 0 0 0
1261 1 5.8540735144770393e+00 3.4267597498618819e+01 9.5717986350943612e-02 0 0 0
1713 1 8.9029823680913811e+00 3.4379788239084206e+01 2.8301397101802328e+00 0 0 0
1262 1 7.3806116014744614e+00 3.5838582504442826e+01 1.5485305696585567e+00 0 0 0
2163 1 1.1796420102752233e+01 3.4309401928987064e+01 2.9191762264583581e+00 0 0 0
1712 1 1.0288087467852208e+01 3.5806119222605211e+01 1.5377975066040452e+00 0 0 0
2162 1 1.3172476164976100e+01 3.5796830936027192e+01 1.4443868257055370e+00 0 0 0
2613 1 1.4516478900939406e+01 3.4226859833212181e+01 2.8330078096981124e+00 0 0 0
2612 1 1.5874781410969485e+01 3.5587401366727342e+01 1.5775243884055679e+00 0 0 0
3063 1 1.7346403497412254e+01 3.4306812496859180e+01 2.8601269028173304e+00 0 0 0
3062 1 1.8635903503847750e+01 3.5764123213338955e+01 1.3375958453137218e+00 0 0 0
3513 1 2.0020167904773025e+01 3.4270209837881922e+01 2.7652121362469275e+00 0 0 0
3512 1 2.1347477201442118e+01 3.5734928345555190e+01 1.3609319648723053e+00 0 0 0
3962 1 2.4284805570992937e+01 3.5785289581118327e+01 1.4333260054529198e+00 0 0 0
3963 1 2.2817228626792012e+01 3.4210172750592292e+01 2.8989816355179481e+00 0 0 0
4413 1 2.5688693770610946e+01 3.4254934274215863e+01 2.8233704860409103e+00 0 0 0
4412 1 2.7159935469559237e+01 3.5529982554414609e+01 1.4515988629612693e+00 0 0 0
392 1 1.5104964306002961e+00 3.8581110992827185e+01 1.4920061377466907e+00 0 0 0
843 1 2.8873831346876577e+00 3.7249986901414267e+01 3.0123297796781734e+00 0 0 0
841 1 3.0726828000636841e+00 3.7229170385726363e+01 2.0022795828767670e-01 0 0 0
393 1 1.1614330332207427e-01 3.7094910883012226e+01 2.9631913741113598e+00 0 0 0
391 1 6.1173649462746449e-02 3.7061564179114555e+01 2.2859366473364418e-01 0 0 0
842 1 4.4840617949753439e+00 3.8661714552823973e+01 1.5347906936541100e+00 0 0 0
1293 1 5.8439760733692232e+00 3.7252677927269524e+01 2.9976600865805656e+00 0 0 0
1291 1 5.8720215014293879e+00 3.7091009582724240e+01 1.3490428744616489e-01 0 0 0
1292 1 7.2655832624659293e+00 3.8539912433288634e+01 1.5434001689758954e+00 0 0 0
1743 1 8.7823341476543852e+00 3.7175265300850086e+01 2.9088403647714896e+00 0 0 0
1741 1 8.7160440540918849e+00 3.7250243760480657e+01 4.8513621569890301e-02 0 0 0
1742 1 1.0108770474017193e+01 3.8620586722253243e+01 1.4751963121835372e+00 0 0 0
2193 1 1.1736850357632299e+01 3.7245637581016574e+01 2.8330634166667092e+00 0 0 0
2191 1 1.1680503217259371e+01 3.7075099709605027e+01 9.9893117549619603e-02 0 0 0
2192 1 1.3116402526402798e+01 3.8645308437869431e+01 1.4412950947468535e+00 0 0 0
2643 1 1.4578905855151241e+01 3.7224706693763416e+01 2.9217140682452074e+00 0 0 0
2642 1 1.5811767890985772e+01 3.8690122805342071e+01 1.3998244923869279e+00 0 0 0
3092 1 1.8620123972311692e+01 3.8649930942783755e+01 1.3245323846310955e+00 0 0 0
3093 1 1.7234658937043726e+01 3.7263702286563394e+01 2.8314214703442517e+00 0 0 0
3091 1 1.7229573855337787e+01 3.7122737345581378e+01 4.1742664628562069e-02 0 0 0
3543 1 2.0038114552394319e+01 3.7151502313322183e+01 2.8640802415826134e+00 0 0 0
3542 1 2.1375921374119837e+01 3.8531349595928724e+01 1.3048839322707702e+00 0 0 0