LAMMPS data file via write_data, version 7 Aug 2019, timestep = 28000

9000 atoms
1 atom types

-1.2454929418246455e-04 5.7106124549294186e+01 xlo xhi
-9.3411970636848420e-05 4.2829593411970642e+01 ylo yhi
-9.3411970636848420e-05 4.2829593411970642e+01 zlo zhi

Masses

1 56

Atoms # atomic

2 1 1.3609673391899184e+00 1.4114538454525054e+00 1.5474801256540007e+00 0 0 0
483 1 2.5938176666943176e+00 2.9531859959339450e+00 3.0780281528328808e+00 0 0 0
453 1 2.7130206246489199e+00 5.0480164027128183e-02 2.9896853954127502e+00 0 0 0
451 1 2.6313539748510073e+00 2.3603318454242128e-02 5.7372437748977281e-02 0 0 0
481 1 2.7317391690850497e+00 2.8777130190238749e+00 1.4821553026353732e-01 0 0 0
1 1 3.5519227164911626e-02 9.1583514255249382e-02 1.1517954865678481e-01 0 0 0
452 1 4.0454313185227218e+00 1.4677072297775706e+00 1.6826429402969640e+00 0 0 0
933 1 5.4880622061235211e+00 2.9158664572781414e+00 2.9680374057077663e+00 0 0 0
901 1 5.4144844716121447e+00 5.0516921263217648e-02 2.0441436190439580e-01 0 0 0
903 1 5.5447247093941892e+00 2.2161785096190093e-01 2.9133738472352610e+00 0 0 0
931 1 5.6162946014459072e+00 2.8942251958845189e+00 8.9454428319911045e-02 0 0 0
902 1 6.9713252486221675e+00 1.5086866879030854e+00 1.5907174441968492e+00 0 0 0
1383 1 8.4614026382934675e+00 2.9428478851567208e+00 2.8696904449581173e+00 0 0 0
1351 1 8.2525907180009721e+00 2.7867812451340670e-03 1.6088074165971491e-02 0 0 0
1381 1 8.4172183798510911e+00 3.0054756117789685e+00 1.1857624539764799e-01 0 0 0
1353 1 8.4892363639021386e+00 9.2799784362023824e-02 2.8867568554133571e+00 0 0 0
1352 1 9.7498541715978515e+00 1.5343045543002884e+00 1.4783584403495678e+00 0 0 0
1833 1 1.1246152136455844e+01 2.7039275112402295e+00 2.8750036544093049e+00 0 0 0
1831 1 1.1290566810756783e+01 2.9615081164015762e+00 3.9105667280134510e-02 0 0 0
1801 1 1.1298714749741368e+01 1.5282737638926533e-01 9.2369851666326497e-02 0 0 0
1802 1 1.2695059307959186e+01 1.3571229341771314e+00 1.5004958692032015e+00 0 0 0
2283 1 1.4182201633471553e+01 2.8469366021860463e+00 3.0151778358347721e+00 0 0 0
2252 1 1.5597659745175012e+01 1.4278646264620212e+00 1.4532130819342093e+00 0 0 0
2253 1 1.4150211743089127e+01 5.5331905058288555e-02 2.8313966120531942e+00 0 0 0
2281 1 1.4153725361345439e+01 2.9786647993831954e+00 7.1553182347082703e-02 0 0 0
2251 1 1.4174839248773825e+01 9.6648265624030130e-02 2.4507892198620596e-02 0 0 0
2702 1 1.8467013028692037e+01 1.5174719897335145e+00 1.5780748119810009e+00 0 0 0
2733 1 1.7089615753587577e+01 2.7377608733310175e+00 2.9736334929490655e+00 0 0 0
2731 1 1.7057344072663838e+01 2.9689869718625119e+00 1.1692418460321999e-01 0 0 0
2701 1 1.7090426164412140e+01 1.0240100091523409e-01 4.2325714120889070e-02 0 0 0
3152 1 2.1209318218116525e+01 1.4696027279693393e+00 1.4392124710240899e+00 0 0 0
3183 1 1.9889400258625177e+01 2.8154205960061365e+00 3.0304148813975065e+00 0 0 0
3153 1 1.9853074454469255e+01 4.8137781373106800e-02 2.8796751063678379e+00 0 0 0
3181 1 1.9872726787597415e+01 2.8767327214017291e+00 5.6491975328806183e-02 0 0 0
3151 1 1.9953123384701627e+01 3.7769432104232101e-02 1.4593615649493106e-02 0 0 0
3602 1 2.4069068814409196e+01 1.3552364094720133e+00 1.4697515387679585e+00 0 0 0
3633 1 2.2775667091577297e+01 2.8438644489576563e+00 2.9361491728557936e+00 0 0 0
3603 1 2.2639701638300604e+01 1.4680809443376397e-01 2.9444067310478079e+00 0 0 0
3631 1 2.2797583886099197e+01 2.9373716933344509e+00 1.1095217248598696e-01 0 0 0
3601 1 2.2742298886248051e+01 1.3723401993461309e-01 9.6844626000287329e-02 0 0 0
4052 1 2.7049491477728676e+01 1.5521724013104075e+00 1.4167936518741167e+00 0 0 0
4083 1 2.5569812847761209e+01 2.7225814602457774e+00 2.9957127340949228e+00 0 0 0
4053 1 2.5604879502058555e+01 1.5311685029943253e-01 2.8698542605767523e+00 0 0 0
4081 1 2.5615559797521723e+01 3.0265992351897402e+00 8.7514450949306932e-02 0 0 0
4501 1 2.8525888017652303e+01 4.8904279886903906e-02 8.4807555377560587e-02 0 0 0
4533 1 2.8521430621995748e+01 2.9626997227005734e+00 2.9324784447953984e+00 0 0 0
4503 1 2.8511372704497290e+01 1.1697370870724193e-02 2.9537587612009277e+00 0 0 0
32 1 1.3094430945489028e+00 4.2933887169496794e+00 1.5408181684944693e+00 0 0 0
513 1 2.6824142641795077e+00 5.7269211922543182e+00 2.9941009781456640e+00 0 0 0
511 1 2.6846710072626188e+00 5.7458578676297121e+00 1.0734281942567034e-01 0 0 0
482 1 4.1021684911023604e+00 4.2817441164582748e+00 1.5072452399343976e+00 0 0 0
963 1 5.5070628636610994e+00 5.6513404254254125e+00 2.8101014546304688e+00 0 0 0
932 1 7.0779529810914754e+00 4.1965798238522014e+00 1.6290853260209301e+00 0 0 0
1413 1 8.4071578140864052e+00 5.7893984942227883e+00 2.8621835100548276e+00 0 0 0
1411 1 8.3410385871685850e+00 5.6644466904753923e+00 1.3128764957602571e-01 0 0 0
1382 1 9.8549252598217176e+00 4.3579353789468263e+00 1.5562206260222267e+00 0 0 0
1863 1 1.1343528264099566e+01 5.6223593574408870e+00 2.9592999475749906e+00 0 0 0
1861 1 1.1329033678104398e+01 5.8769533619843619e+00 2.6986582847797740e-02 0 0 0
1832 1 1.2779721858070197e+01 4.2152424776400679e+00 1.5594731764396776e+00 0 0 0
2313 1 1.4239409582079283e+01 5.6762707677144899e+00 2.9414956625749960e+00 0 0 0
2282 1 1.5668915922265459e+01 4.1658609311876518e+00 1.5313979080781857e+00 0 0 0
2311 1 1.4245672481376674e+01 5.6784645298176297e+00 5.0498906896030475e-02 0 0 0
2732 1 1.8427538525244486e+01 4.3049858103509893e+00 1.6180346984833409e+00 0 0 0
2763 1 1.6960269214534929e+01 5.6308147047976291e+00 3.0405187789971428e+00 0 0 0
2761 1 1.6985531922694580e+01 5.6823291142620418e+00 3.6702129491321747e-02 0 0 0
3182 1 2.1347741644291897e+01 4.1763939920971396e+00 1.4195233096161946e+00 0 0 0
3213 1 1.9794966976566858e+01 5.5624653778226723e+00 2.8648759994354775e+00 0 0 0
3211 1 1.9818066437824434e+01 5.6881469470994874e+00 4.8091336919439294e-02 0 0 0
3632 1 2.4122893873184129e+01 4.2261719896265975e+00 1.5350767197356359e+00 0 0 0
3663 1 2.2743340013918420e+01 5.6144167898695665e+00 2.8769438576578090e+00 0 0 0
4082 1 2.7060861693052686e+01 4.3155332382522165e+00 1.4924889512069288e+00 0 0 0
4113 1 2.5746841062148022e+01 5.8628670698820224e+00 2.9886809616822720e+00 0 0 0
4111 1 2.5571930353152613e+01 5.6800242768982470e+00 6.5608695950158599e-02 0 0 0
4563 1 2.8441590092478926e+01 5.6743838378149505e+00 3.0152021091759034e+00 0 0 0
62 1 1.3416252449051056e+00 6.9912854089551004e+00 1.5903602214427610e+00 0 0 0
543 1 2.7497737124606529e+00 8.3476199154579582e+00 3.0631937783071721e+00 0 0 0
541 1 2.6911986874066947e+00 8.3243982619284793e+00 1.6152920159854781e-01 0 0 0
92 1 1.3426144425684738e+00 9.8319942540110290e+00 1.6213490486415978e+00 0 0 0
512 1 4.1736637349650465e+00 7.0006805272259207e+00 1.4956142871423197e+00 0 0 0
993 1 5.4990488861826714e+00 8.4547296571909154e+00 2.9474509550255155e+00 0 0 0
542 1 4.2570630974857453e+00 9.8495053576688782e+00 1.4233566785082477e+00 0 0 0
962 1 6.9608003484241658e+00 7.1180701714654075e+00 1.5028898060521694e+00 0 0 0
1443 1 8.2413335211362551e+00 8.5105152628309551e+00 2.8092364374680945e+00 0 0 0
1441 1 8.3354749409590223e+00 8.5676016639452790e+00 6.4134338814440639e-02 0 0 0
1412 1 9.8365194203783179e+00 7.1759313898985519e+00 1.4326190949389581e+00 0 0 0
1893 1 1.1313787436832870e+01 8.5951290474859583e+00 2.8563985146328363e+00 0 0 0
1891 1 1.1172590234549112e+01 8.5090367045184028e+00 1.3964456213770332e-01 0 0 0
1862 1 1.2913805816360457e+01 7.1277596791515974e+00 1.5604017945467377e+00 0 0 0
2343 1 1.4251796149740217e+01 8.6502400228740708e+00 2.8810256108658203e+00 0 0 0
2312 1 1.5661250404138579e+01 7.0349577027427843e+00 1.4929288399825835e+00 0 0 0
2762 1 1.8377390341918765e+01 6.9991172630133418e+00 1.5499271614138985e+00 0 0 0
2793 1 1.7019156870237882e+01 8.5833898196432070e+00 2.8771309250283990e+00 0 0 0
3212 1 2.1257640773328411e+01 6.9105384983070444e+00 1.4648190904445093e+00 0 0 0
3243 1 1.9735559436077718e+01 8.4384792921479868e+00 2.8172041980904479e+00 0 0 0
3241 1 1.9842617332351040e+01 8.4090110567050935e+00 3.4029526350762535e-02 0 0 0
3242 1 2.1416272456376220e+01 9.8532683809364556e+00 1.5296728321186637e+00 0 0 0
3662 1 2.4197438380941787e+01 7.0710109949032143e+00 1.4831118542060862e+00 0 0 0
3693 1 2.2705454291681168e+01 8.6054760272378257e+00 2.9781455793811693e+00 0 0 0
3691 1 2.2927895666703311e+01 8.4066166405384344e+00 8.7949469746452638e-02 0 0 0
4112 1 2.7229499608346138e+01 7.1674274455263332e+00 1.4442662893373424e+00 0 0 0
4143 1 2.5671688840989088e+01 8.4669982294891213e+00 3.0535412575639937e+00 0 0 0
4141 1 2.5772379365087605e+01 8.4477325778175238e+00 1.1102446354144875e-01 0 0 0
573 1 2.8023647100309867e+00 1.1201876129522550e+01 2.9204256027755791e+00 0 0 0
122 1 1.2908970079268485e+00 1.2642161500896922e+01 1.5784703125291037e+00 0 0 0
571 1 2.5892088132023510e+00 1.1148016027594018e+01 9.7760108336890819e-02 0 0 0
1023 1 5.6141509761031179e+00 1.1375843514480737e+01 2.8785782191947829e+00 0 0 0
572 1 4.1572773160321832e+00 1.2656839286209712e+01 1.4839847299032076e+00 0 0 0
1021 1 5.6396491274384850e+00 1.1337091167181303e+01 6.6909700954603579e-02 0 0 0
992 1 6.9392840313966575e+00 9.9447218623691001e+00 1.4886022649363224e+00 0 0 0
1473 1 8.3824346781213350e+00 1.1468013492884305e+01 2.7004535600337132e+00 0 0 0
1022 1 7.1246189818529206e+00 1.2954397414126110e+01 1.4276781550076634e+00 0 0 0
1471 1 8.3260056575045045e+00 1.1262675022769022e+01 1.1661529799923187e-02 0 0 0
1442 1 9.7562953105054557e+00 9.9578110828332651e+00 1.5260471127556605e+00 0 0 0
1923 1 1.1225585521791569e+01 1.1436086210172263e+01 2.8930701117244024e+00 0 0 0
1472 1 9.7864738445053483e+00 1.2803374440048538e+01 1.4902313386646140e+00 0 0 0
1921 1 1.1245043775335111e+01 1.1136222583255485e+01 1.0893707791379774e-01 0 0 0
1922 1 1.2615847193202884e+01 1.2786911073659670e+01 1.6326739648142374e+00 0 0 0
2342 1 1.5597182405649342e+01 1.0060324000625805e+01 1.3753187925799697e+00 0 0 0
1892 1 1.2831285403887323e+01 9.9265940378985569e+00 1.5470474954228537e+00 0 0 0
2373 1 1.4159939559778691e+01 1.1422508748026639e+01 2.8644500119065222e+00 0 0 0
2372 1 1.5738975614757583e+01 1.2722979174641795e+01 1.2244032123252933e+00 0 0 0
2371 1 1.4066535176224569e+01 1.1369765316659013e+01 5.6058948881158699e-02 0 0 0
2792 1 1.8486056576166973e+01 9.9356772170785543e+00 1.4696387146463135e+00 0 0 0
2823 1 1.6932645294537288e+01 1.1310372104836514e+01 2.9393030736003034e+00 0 0 0
2822 1 1.8455016892014225e+01 1.2564678303353510e+01 1.5807043243899253e+00 0 0 0
3273 1 1.9888437172996731e+01 1.1270909555734981e+01 2.9305425746471596e+00 0 0 0
3272 1 2.1393411500873249e+01 1.2679323448835417e+01 1.5835864894941662e+00 0 0 0
3271 1 1.9931820836692122e+01 1.1184787729910576e+01 3.2389669534914844e-02 0 0 0
3692 1 2.4326183417492814e+01 9.9478099808521687e+00 1.6807360804588447e+00 0 0 0
3723 1 2.2794562156515859e+01 1.1227221868054155e+01 3.0354268535344437e+00 0 0 0
3722 1 2.4125417869338403e+01 1.2707815100277427e+01 1.6524273561168461e+00 0 0 0
3721 1 2.2832412577959111e+01 1.1150418877457046e+01 9.4542650896585825e-02 0 0 0
4142 1 2.7184391994892511e+01 9.8916332624021486e+00 1.6509608627175809e+00 0 0 0
4173 1 2.5666473279167018e+01 1.1328842941607157e+01 3.0976120944584933e+00 0 0 0
4172 1 2.7146487555215312e+01 1.2684044800813609e+01 1.5534343389187801e+00 0 0 0
4171 1 2.5759711391510411e+01 1.1242675218798480e+01 8.2806158206604780e-02 0 0 0
603 1 2.8459042936638959e+00 1.4087735020816263e+01 2.9683205968731019e+00 0 0 0
152 1 1.4739791460619245e+00 1.5334875918525736e+01 1.5022519448760858e+00 0 0 0
601 1 2.7510266447568270e+00 1.3942571003114455e+01 5.7872399259458855e-02 0 0 0
1053 1 5.6536116828071021e+00 1.4088164823802865e+01 3.0727502300227592e+00 0 0 0
602 1 4.1704278066463196e+00 1.5480223784488997e+01 1.5340791932250752e+00 0 0 0
1503 1 8.4933871060911503e+00 1.4274966487736153e+01 2.9250502426542164e+00 0 0 0
1052 1 6.9623406218472432e+00 1.5474082297878597e+01 1.5474684490809385e+00 0 0 0
1953 1 1.1152066513961095e+01 1.4295480694291131e+01 2.9225780360724540e+00 0 0 0
1502 1 9.8154831038129089e+00 1.5568115589572409e+01 1.5023478793880096e+00 0 0 0
1951 1 1.1348340880775535e+01 1.4153487718512659e+01 9.8999054578435178e-02 0 0 0
1952 1 1.2724959246193796e+01 1.5574428894713565e+01 1.5872264698793876e+00 0 0 0
2403 1 1.4174727352084140e+01 1.4278048537449767e+01 2.8745547206426867e+00 0 0 0
2402 1 1.5674922732884440e+01 1.5674592778164341e+01 1.3709061721566767e+00 0 0 0
2401 1 1.4083965738626546e+01 1.4237852687072635e+01 7.8945630387207838e-02 0 0 0
2853 1 1.7116443806705430e+01 1.4136218628715008e+01 2.8054990397322470e+00 0 0 0
2852 1 1.8585814515853553e+01 1.5489711846056089e+01 1.4329105486823437e+00 0 0 0
3303 1 1.9841084502814248e+01 1.4100001475988472e+01 2.9797884682749882e+00 0 0 0
3302 1 2.1361952572013379e+01 1.5587028717978603e+01 1.5563664959264996e+00 0 0 0
3301 1 1.9957619540933120e+01 1.4059709377079315e+01 1.9099169293822191e-01 0 0 0
3753 1 2.2799613968001104e+01 1.4134642791507350e+01 3.0510590918689191e+00 0 0 0
3752 1 2.4255365616610483e+01 1.5624772872291071e+01 1.4622392176937893e+00 0 0 0
3751 1 2.2878359361025399e+01 1.4037342774934551e+01 1.8619462000684192e-01 0 0 0
4203 1 2.5682309703275752e+01 1.4265350325978211e+01 3.0197118300466324e+00 0 0 0
4202 1 2.7174579183997565e+01 1.5459655476438510e+01 1.4746802242147456e+00 0 0 0
4201 1 2.5637926576425919e+01 1.4065701043596677e+01 2.3576677793081632e-01 0 0 0
182 1 1.4634027048889475e+00 1.8448549939946847e+01 1.4001702986317122e+00 0 0 0
633 1 2.7117513049176014e+00 1.7026548572240319e+01 2.9749141419030041e+00 0 0 0
631 1 2.7411882351401919e+00 1.6941205241077292e+01 1.4923704347597777e-01 0 0 0
183 1 2.2190432368726160e-01 1.6959923376893059e+01 2.8207305036949371e+00 0 0 0
181 1 1.4295216438929214e-02 1.6911710862212352e+01 6.6261517531213662e-02 0 0 0
632 1 4.1776078015372606e+00 1.8499530872806652e+01 1.4924256177347988e+00 0 0 0
1083 1 5.5731418935554622e+00 1.7029245093065736e+01 3.1402600392215594e+00 0 0 0
1081 1 5.7044491473476722e+00 1.6873257935029692e+01 1.8162138701558606e-01 0 0 0
1082 1 6.9584648594555683e+00 1.8518157458962378e+01 1.5081343356178398e+00 0 0 0
1533 1 8.3656776008804137e+00 1.7148300105537952e+01 2.9157271303712213e+00 0 0 0
1531 1 8.4892070772645525e+00 1.6929123121781526e+01 1.8926342263708379e-01 0 0 0
1532 1 9.8609384221769822e+00 1.8426883086269314e+01 1.5210390498844411e+00 0 0 0
1983 1 1.1270963036596402e+01 1.7159895467995625e+01 2.9311536841405181e+00 0 0 0
1981 1 1.1215508421972771e+01 1.7072215606898563e+01 1.3924812609758150e-01 0 0 0
1982 1 1.2842778976236357e+01 1.8412486674244040e+01 1.4795299771561456e+00 0 0 0
2433 1 1.4105330630655441e+01 1.7096520840402370e+01 2.9237423145920265e+00 0 0 0
2432 1 1.5616180675292338e+01 1.8454550353262121e+01 1.4719132704893318e+00 0 0 0
2431 1 1.4252518814493852e+01 1.7005796839935378e+01 1.7703450532136122e-01 0 0 0
2882 1 1.8599299397617010e+01 1.8521714132089489e+01 1.4629386792121595e+00 0 0 0
2883 1 1.7187824303430734e+01 1.7099661046823691e+01 2.8782613719593142e+00 0 0 0
2881 1 1.7214779662423311e+01 1.7088650456962444e+01 5.0355065310050781e-02 0 0 0
2911 1 1.7127094109137275e+01 1.9757297803990006e+01 5.7722955371384596e-02 0 0 0
3333 1 1.9906282942786358e+01 1.7199696660598466e+01 2.9743423635931618e+00 0 0 0
3332 1 2.1363972480380188e+01 1.8488254189754507e+01 1.4442851081307047e+00 0 0 0
3331 1 1.9837565645835451e+01 1.7162027236169159e+01 8.6898488956171527e-02 0 0 0
3782 1 2.4321000720371948e+01 1.8275203428919443e+01 1.5615544182751795e+00 0 0 0
3783 1 2.2824994657422494e+01 1.6908963241579094e+01 2.9421759943657779e+00 0 0 0
3781 1 2.2861328232309361e+01 1.7021958437202564e+01 1.2081587361761187e-01 0 0 0
4232 1 2.7290844061352235e+01 1.8268115116232156e+01 1.5483943423236075e+00 0 0 0
4233 1 2.5707640084402787e+01 1.6846833872893107e+01 3.0742627822585846e+00 0 0 0
4231 1 2.5905763682101064e+01 1.6997330680330322e+01 1.9320576920224580e-01 0 0 0
4263 1 2.5894792129768970e+01 1.9705527547388137e+01 2.9959738751784100e+00 0 0 0
212 1 1.3805965779683946e+00 2.1332013527214418e+01 1.5189800145341925e+00 0 0 0
663 1 2.7143715057123301e+00 1.9911965494204132e+01 3.0138220853868392e+00 0 0 0
693 1 2.7960051351051307e+00 2.2706298639254030e+01 3.0182792974034176e+00 0 0 0
661 1 2.8021989043410103e+00 1.9914480590010097e+01 2.0389371034841165e-02 0 0 0
211 1 4.9856713597180311e-03 1.9940345461188929e+01 1.9059664649760877e-01 0 0 0
1113 1 5.4965518664442765e+00 1.9805863663936783e+01 2.9847263048828681e+00 0 0 0
662 1 3.9997627752144944e+00 2.1285392604231507e+01 1.4677267230259097e+00 0 0 0
1143 1 5.3930873620156623e+00 2.2737325123792480e+01 3.0787846233285117e+00 0 0 0
1111 1 5.5237534095818921e+00 1.9916465128850163e+01 3.5692552234145992e-03 0 0 0
1141 1 5.5645661447667267e+00 2.2718644494077569e+01 1.2149957110636224e-01 0 0 0
1563 1 8.4594948865949657e+00 1.9894482327126301e+01 2.8947903697107344e+00 0 0 0
1112 1 7.1356497103588437e+00 2.1368761814309437e+01 1.5991353328328854e+00 0 0 0
1593 1 8.4370903018369354e+00 2.2657895357718814e+01 3.0761895167505533e+00 0 0 0
1591 1 8.3818416443988699e+00 2.2852822315755649e+01 1.2952179975676795e-01 0 0 0
1561 1 8.5294265916707968e+00 1.9816147291749608e+01 1.0714036006813825e-01 0 0 0
1562 1 1.0041238460805946e+01 2.1325484308988973e+01 1.6098451352807637e+00 0 0 0
2013 1 1.1428329411629369e+01 1.9866240681142468e+01 3.0510335663445307e+00 0 0 0
2043 1 1.1334287916927670e+01 2.2871080431787529e+01 3.0171207295623610e+00 0 0 0
2011 1 1.1345019806421572e+01 1.9897103633236153e+01 6.8278496663538676e-02 0 0 0
2041 1 1.1396876478325314e+01 2.2687335293192767e+01 9.7724364343189971e-02 0 0 0
2463 1 1.4230433895752524e+01 1.9953150888156742e+01 3.0493185259080944e+00 0 0 0
2012 1 1.2908214157306574e+01 2.1299864921238690e+01 1.5422424112137589e+00 0 0 0
2493 1 1.4160745633536315e+01 2.2804551673419585e+01 3.1330487152847826e+00 0 0 0
2461 1 1.4236059345789847e+01 1.9916297873159852e+01 7.7410104566983301e-02 0 0 0
2462 1 1.5479977592010279e+01 2.1455076991867092e+01 1.7152020591169004e+00 0 0 0
2913 1 1.7051781409558039e+01 1.9911541846800269e+01 2.9174918599105388e+00 0 0 0
2912 1 1.8446679655889170e+01 2.1290734408876229e+01 1.6188411499469078e+00 0 0 0
2943 1 1.7000631914177269e+01 2.2640857887000365e+01 3.0536142679654805e+00 0 0 0
2941 1 1.7073289986491833e+01 2.2718300983080134e+01 1.3801129096978759e-01 0 0 0
3363 1 2.0072533940197747e+01 1.9929274388023057e+01 2.8835754191386354e+00 0 0 0
3361 1 1.9928440854269436e+01 1.9871311399835225e+01 3.0466504954994485e-02 0 0 0
3393 1 1.9989985706863735e+01 2.2729198322070960e+01 2.9317750562903799e+00 0 0 0
3362 1 2.1402729883701149e+01 2.1276733149205988e+01 1.4314271951466926e+00 0 0 0
3391 1 1.9925019989344925e+01 2.2646150054826773e+01 1.2579972828488403e-01 0 0 0
3813 1 2.2890686431808479e+01 1.9782398016831252e+01 2.8482108037524370e+00 0 0 0
3812 1 2.4337434553528258e+01 2.1385342334107701e+01 1.6113111535691478e+00 0 0 0
3843 1 2.2884171378575846e+01 2.2919479524887095e+01 2.9020835495786956e+00 0 0 0
3811 1 2.3043444104140125e+01 1.9857170652547342e+01 7.8902125965691225e-02 0 0 0
3841 1 2.2934639055528937e+01 2.2741885067133811e+01 2.0661642495511001e-01 0 0 0
4261 1 2.5874667835235545e+01 1.9776094604388135e+01 1.4960734257714081e-01 0 0 0
4262 1 2.7336102887884543e+01 2.1240582854630425e+01 1.5237117167766543e+00 0 0 0
4293 1 2.5766764378293885e+01 2.2602446695474416e+01 3.0555303991464604e+00 0 0 0
4291 1 2.5804499928056718e+01 2.2693105715629660e+01 1.4576412008787268e-01 0 0 0
4741 1 2.8530031821001764e+01 2.2788748377109702e+01 1.3193425994015179e-01 0 0 0
242 1 1.4368375138181495e+00 2.4110775153228591e+01 1.4801347844153334e+00 0 0 0
723 1 2.8802342838045494e+00 2.5694326104165857e+01 2.9368988898265771e+00 0 0 0
721 1 2.8031766197247956e+00 2.5632608946839305e+01 7.4642665083405446e-02 0 0 0
273 1 2.3869057130832924e-01 2.5629441511075594e+01 2.9891845763192442e+00 0 0 0
692 1 4.1578266691079477e+00 2.4129071076082354e+01 1.5388788014348838e+00 0 0 0
1173 1 5.4511340663157331e+00 2.5615606388612125e+01 3.0717140171809421e+00 0 0 0
1171 1 5.5911547131930526e+00 2.5744257259602204e+01 7.0330686800249023e-02 0 0 0
1142 1 6.8310064417859575e+00 2.4093551481032897e+01 1.6683429337842195e+00 0 0 0
1623 1 8.1833535513978806e+00 2.5296322883013175e+01 3.0443735157427727e+00 0 0 0
1621 1 8.5058880116465012e+00 2.5726371754079249e+01 1.9188525174078927e-01 0 0 0
1592 1 9.8953313946301389e+00 2.4264326869707503e+01 1.6139378888881741e+00 0 0 0
2073 1 1.1214004639653917e+01 2.5662789304780606e+01 3.0793438302984413e+00 0 0 0
2549 1 1.1486548753560820e+01 2.5214382408758446e+01 5.4638942952387026e-02 0 0 1
2042 1 1.2827011388843028e+01 2.4259303590634136e+01 1.6816302191729637e+00 0 0 0
2523 1 1.4122785950267213e+01 2.5672488330359680e+01 2.9860145780639207e+00 0 0 0
2521 1 1.4131556184107200e+01 2.5599381160039730e+01 6.0434947410999987e-02 0 0 0
2492 1 1.5443499392947121e+01 2.4107898128287133e+01 1.5333680214829424e+00 0 0 0
2942 1 1.8462427574097482e+01 2.3975252879538591e+01 1.6638031280369578e+00 0 0 0
2973 1 1.6960211783232126e+01 2.5618555296964097e+01 3.0508099032724951e+00 0 0 0
2971 1 1.6985863519479995e+01 2.5509316747993719e+01 2.0886628803688295e-01 0 0 0
3423 1 1.9866721219939659e+01 2.5592505579906678e+01 3.0202587413271496e+00 0 0 0
3392 1 2.1341011717628358e+01 2.4213187341448396e+01 1.5178048963081272e+00 0 0 0
3421 1 1.9797173355414373e+01 2.5549638090118737e+01 1.3279054314856001e-01 0 0 0
3842 1 2.4348215066213044e+01 2.4146033889525846e+01 1.5030278787835569e+00 0 0 0
3873 1 2.2892018907986468e+01 2.5543136844744083e+01 2.9157601611448851e+00 0 0 0
3871 1 2.2823540110002526e+01 2.5687886345791437e+01 8.7008301400244167e-02 0 0 0
4292 1 2.7145279986935932e+01 2.4211212760510129e+01 1.6435183084454072e+00 0 0 0
4323 1 2.5777782848999781e+01 2.5661685794103178e+01 3.0032918715087109e+00 0 0 0
272 1 1.4727179927260847e+00 2.7284572985291604e+01 1.5967989857567033e+00 0 0 0
753 1 2.8049011030450131e+00 2.8562645706174543e+01 3.0521237505144847e+00 0 0 0
303 1 1.4959925952553021e-01 2.8684137953054883e+01 2.8599040626012067e+00 0 0 0
722 1 4.1450109532936139e+00 2.7276137503033613e+01 1.5248778973250083e+00 0 0 0
1203 1 5.3958427294865929e+00 2.8686480083652611e+01 2.9032312779882035e+00 0 0 0
2071 1 9.1502875527477521e+00 2.7180410854826590e+01 2.3512793614590222e+00 0 0 0
1172 1 6.8195899230251245e+00 2.7115172064520500e+01 1.5841293791008721e+00 0 0 0
1653 1 8.3156760366217988e+00 2.9010750075789467e+01 3.0547022959828110e+00 0 0 0
1651 1 8.5806918078544232e+00 2.8425407335372185e+01 1.0010986559512887e-01 0 0 0
1622 1 1.0629372000891529e+01 2.7108083672788165e+01 6.9202310717169979e-01 0 0 0
2103 1 1.1201015654870831e+01 2.8596925324922022e+01 3.0419110852760860e+00 0 0 0
2101 1 1.1533485374196379e+01 2.9012082027648717e+01 5.4261553359977482e-02 0 0 0
2072 1 1.2751528544471325e+01 2.7156173904284024e+01 1.5421976682042109e+00 0 0 0
2553 1 1.4101168144223429e+01 2.8592558874450091e+01 2.9924776860230615e+00 0 0 0
2522 1 1.5478356855837072e+01 2.7121268815786291e+01 1.5802353579848822e+00 0 0 0
2551 1 1.4145983363706147e+01 2.8503150385477337e+01 7.6170079624013842e-02 0 0 0
2972 1 1.8433746414142860e+01 2.7004092971128642e+01 1.5699569728057332e+00 0 0 0
3003 1 1.6911264779748748e+01 2.8473223353913799e+01 2.8941417194622474e+00 0 0 0
3001 1 1.6957097115291283e+01 2.8553004626472564e+01 1.1625745098433116e-01 0 0 0
3422 1 2.1381267424245127e+01 2.6972985069155978e+01 1.6491270655881047e+00 0 0 0
3453 1 1.9869252524974332e+01 2.8489847495823430e+01 3.0327151428818366e+00 0 0 0
3451 1 1.9858193482328875e+01 2.8522951094948219e+01 2.7803144470591423e-01 0 0 0
3872 1 2.4305871317871546e+01 2.7079344676625396e+01 1.5945391475111785e+00 0 0 0
3903 1 2.2685122591452988e+01 2.8539413698591535e+01 2.9012208872878320e+00 0 0 0
3901 1 2.2718863329705897e+01 2.8607599376321168e+01 1.4647079525305448e-01 0 0 0
4322 1 2.7123149489459745e+01 2.7286573652396790e+01 1.6197053320375687e+00 0 0 0
4353 1 2.5639294834927160e+01 2.8492196094703360e+01 3.0793957665338039e+00 0 0 0
4351 1 2.5616211308575142e+01 2.8505294438382712e+01 1.9826080355524844e-01 0 0 0
4801 1 2.8460399805676882e+01 2.8528978820338523e+01 1.1657846530474079e-01 0 0 0
302 1 1.4608512714619091e+00 2.9933085483135724e+01 1.4137209764423033e+00 0 0 0
783 1 2.7776583152047438e+00 3.1492815249715722e+01 2.8786079072659696e+00 0 0 0
781 1 2.8872577821538807e+00 3.1417915598667236e+01 1.1950196267038317e-01 0 0 0
333 1 2.5590012733825572e-02 3.1576091709919552e+01 2.8535307339473981e+00 0 0 0
752 1 4.2591136260209890e+00 2.9998848185914589e+01 1.3442943393513713e+00 0 0 0
1233 1 5.4807104274188161e+00 3.1584517821364404e+01 2.8230601012179162e+00 0 0 0
1202 1 6.9340472566221418e+00 3.0047430428567285e+01 1.2968610037349313e+00 0 0 0
1683 1 8.3758998987669635e+00 3.1512055397556502e+01 2.9975589414414028e+00 0 0 0
1681 1 8.3899451697458982e+00 3.1497818092451656e+01 1.4168899734916351e-01 0 0 0
1232 1 7.0037498090209684e+00 3.2882913927246406e+01 1.5556722705896404e+00 0 0 0
1652 1 9.8411007683038427e+00 3.0064824865396158e+01 1.6014049307099805e+00 0 0 0
2133 1 1.1276290006142062e+01 3.1636168894286399e+01 3.0165032784342758e+00 0 0 0
2131 1 1.1196861021196442e+01 3.1507266357757661e+01 1.6035271039495247e-01 0 0 0
2102 1 1.2750740064612121e+01 3.0211991526684926e+01 1.6278445619224733e+00 0 0 0
2583 1 1.4080314198992143e+01 3.1493284869473431e+01 3.0484092816495858e+00 0 0 0
2552 1 1.5546863751644908e+01 2.9895658017905802e+01 1.5675220085545138e+00 0 0 0
2581 1 1.4330405971398815e+01 3.1359803979621375e+01 1.6876060734969656e-01 0 0 0
3002 1 1.8327293478868011e+01 2.9949359968879051e+01 1.5507771483625790e+00 0 0 0
3033 1 1.6985282041608407e+01 3.1361299388818594e+01 2.9558309829143572e+00 0 0 0
3031 1 1.6967706329142153e+01 3.1444906503277792e+01 7.6237888687543762e-02 0 0 0
3452 1 2.1299505429476525e+01 2.9913746120648696e+01 1.6188689772805556e+00 0 0 0
3483 1 1.9805146701151127e+01 3.1342584949073277e+01 2.9163172743087804e+00 0 0 0
3482 1 2.1286956249666769e+01 3.2889169399189996e+01 1.5724573055804318e+00 0 0 0
3481 1 1.9825331153993847e+01 3.1429328349033536e+01 2.4156922102191714e-01 0 0 0
3902 1 2.4165818267188264e+01 2.9927754439641209e+01 1.6326059081922208e+00 0 0 0
3933 1 2.2821857358511977e+01 3.1397522896953632e+01 3.0777186618187766e+00 0 0 0
3932 1 2.4141227124383406e+01 3.2921616708522038e+01 1.6872847988829309e+00 0 0 0
3931 1 2.2734692837369980e+01 3.1409356314819515e+01 2.5138072064467515e-01 0 0 0
4383 1 2.5555044744277065e+01 3.1428404019154335e+01 3.0550317610319180e+00 0 0 0
4352 1 2.7022599204240468e+01 3.0127092346298291e+01 1.5709768061325020e+00 0 0 0
4382 1 2.7015507781559084e+01 3.2866271445302658e+01 1.6036934340358850e+00 0 0 0
4381 1 2.5534109284672667e+01 3.1409991889004342e+01 1.9367495291690429e-01 0 0 0
4802 1 2.8494798191107915e+01 3.1336884515056614e+01 3.0881510345672814e+00 0 0 0
4831 1 2.8530617909610907e+01 3.1462222896319268e+01 1.4129075581089137e-01 0 0 0
332 1 1.4102524165154282e+00 3.2950069412078690e+01 1.4054482663918173e+00 0 0 0
813 1 2.7949391067002938e+00 3.4284794637256780e+01 2.8477153016013261e+00 0 0 0
362 1 1.2613038922266131e+00 3.5817765715988202e+01 1.3286981249649830e+00 0 0 0
363 1 4.0128277082032704e-02 3.4374120203597784e+01 2.9019877158760288e+00 0 0 0
782 1 4.1912832723596054e+00 3.2955618297333615e+01 1.3507901692552735e+00 0 0 0
1263 1 5.4846261863660350e+00 3.4431451858169154e+01 2.8788425068337542e+00 0 0 0
812 1 4.0515185373333731e+00 3.5791895199016651e+01 1.5606371500623972e+00 0 0 0
1261 1 5.5336789097453112e+00 3.4428043551042094e+01 1.5016439562560890e-01 0 0 0
1713 1 8.2950420662133730e+00 3.4318830657674880e+01 3.0851942029906581e+00 0 0 0
1262 1 6.9458946189640614e+00 3.5785016998175522e+01 1.5949778647994739e+00 0 0 0
1711 1 8.3569594919166299e+00 3.4299124585687863e+01 1.0761596459037374e-01 0 0 0
1682 1 9.7116224397998714e+00 3.2947577177378676e+01 1.5960530952461545e+00 0 0 0
2163 1 1.1333442659979882e+01 3.4342661807739645e+01 3.1098509077853635e+00 0 0 0
1712 1 9.8015967022232076e+00 3.5806552602465530e+01 1.5609992589524120e+00 0 0 0
2161 1 1.1145878057122394e+01 3.4214049587799011e+01 1.1064584496827408e-01 0 0 0
2582 1 1.5694109627877186e+01 3.2961732090105073e+01 1.4962145347313198e+00 0 0 0
2132 1 1.2771640492850299e+01 3.2973949666971379e+01 1.5054085304994542e+00 0 0 0
2162 1 1.2744823410367035e+01 3.5752547220415778e+01 1.5607107697950118e+00 0 0 0
2613 1 1.4301654732574027e+01 3.4231223637855280e+01 2.9814864015782501e+00 0 0 0
2611 1 1.4196637406757047e+01 3.4190528941645496e+01 8.8155956423962581e-02 0 0 0
2612 1 1.5658921732491269e+01 3.5690320732933714e+01 1.4990879149298424e+00 0 0 0
3032 1 1.8452264134569127e+01 3.3055945043269332e+01 1.5711411266380733e+00 0 0 0
3063 1 1.6889684610590322e+01 3.4315755259771066e+01 3.1246430885055987e+00 0 0 0
3062 1 1.8565084174496857e+01 3.5911499906389679e+01 1.4777671072067462e+00 0 0 0
3061 1 1.7060175425082608e+01 3.4491061883760011e+01 7.7619532904606103e-02 0 0 0
3513 1 1.9932534188422579e+01 3.4478160177471480e+01 2.9479819654830930e+00 0 0 0
3512 1 2.1306717776725307e+01 3.5800013965176262e+01 1.5305594949251118e+00 0 0 0
3963 1 2.2787092980018482e+01 3.4405146145479534e+01 3.1552948589188472e+00 0 0 0
3962 1 2.4333405418002179e+01 3.5798735045684992e+01 1.6221443659813901e+00 0 0 0
3961 1 2.2778240998741126e+01 3.4369002660029139e+01 2.9370237191074472e-01 0 0 0
4413 1 2.5670351639855451e+01 3.4266538997742146e+01 3.0937412017094652e+00 0 0 0
4412 1 2.7140361639852411e+01 3.5669492520055400e+01 1.5789881437807787e+00 0 0 0
4411 1 2.5561259601007073e+01 3.4384198062907444e+01 1.4895346840461043e-01 0 0 0
4861 1 2.8434672535148742e+01 3.4417063753105026e+01 8.3853648973400030e-02 0 0 0
392 1 1.2179260920353219e+00 3.8780883543931068e+01 1.5279803377039025e+00 0 0 0