LAMMPS data file via write_data, version 7 Aug 2019, timestep = 28000

9000 atoms
1 atom types

-1.2454929418246455e-04 5.7106124549294186e+01 xlo xhi
-9.3411970636848420e-05 4.2829593411970642e+01 ylo yhi
-9.3411970636848420e-05 4.2829593411970642e+01 zlo zhi

Masses

1 56

Atoms # atomic

2 1 1.3719405418468820e+00 1.3792912237695432e+00 1.3710422465585195e+00 0 0 0
483 1 2.7824493637974523e+00 2.7930830606233932e+00 2.8779605756731055e+00 0 0 0
453 1 2.9117073259735475e+00 1.4718557494817888e-02 2.8755229977571517e+00 0 0 0
3 1 2.1015841748329933e-02 9.1604878210631568e-03 2.7250733090562158e+00 0 0 0
452 1 4.5190289632911576e+00 1.2482373807010152e+00 1.3553227002484078e+00 0 0 0
933 1 5.5120691600368446e+00 2.8530861828701441e+00 2.7396895867081992e+00 0 0 0
902 1 7.1122842474945562e+00 1.4260574892163684e+00 1.4532030876079285e+00 0 0 0
1383 1 8.7047305628367546e+00 2.8949815956662310e+00 2.6968494314715215e+00 0 0 0
1352 1 1.0135937801869060e+01 1.3462365298132184e+00 1.3046429816915275e+00 0 0 0
1833 1 1.1495716891331396e+01 2.8740191053505617e+00 2.7010738569880015e+00 0 0 0
1831 1 1.1525670032655707e+01 2.8623648505578525e+00 2.6901927322825599e-02 0 0 0
1802 1 1.3106983545859048e+01 1.2286804542701035e+00 1.3552732695301959e+00 0 0 0
2283 1 1.4342708657891048e+01 2.7264977439555631e+00 2.8306961193166438e+00 0 0 0
2252 1 1.5792517986491445e+01 1.2840114192298413e+00 1.4233302083638057e+00 0 0 0
2702 1 1.8650541423104436e+01 1.2621844950366181e+00 1.2577485970744988e+00 0 0 0
2733 1 1.7282196195115361e+01 2.8564941117622804e+00 2.8410401726768759e+00 0 0 0
3183 1 2.0153788386617833e+01 2.8451423690837050e+00 2.8734919911110870e+00 0 0 0
3152 1 2.1628378542524477e+01 1.3599278590373722e+00 1.4432006213008162e+00 0 0 0
3153 1 2.0344836320932547e+01 1.1243087902187254e-01 2.9052219184842873e+00 0 0 0
3151 1 2.0183974722094092e+01 2.6153648294823029e-02 1.5327154644410257e-02 0 0 0
3602 1 2.4418724743009651e+01 1.3843100453359580e+00 1.3642443999704417e+00 0 0 0
3633 1 2.2988010305379074e+01 2.8787054496316902e+00 2.8454335050535779e+00 0 0 0
3603 1 2.2982611951118976e+01 4.6450744306845593e-02 2.8869952856140997e+00 0 0 0
4052 1 2.7305091624291993e+01 1.5165490618447470e+00 1.3301281186978424e+00 0 0 0
4083 1 2.5758335324510849e+01 2.8917455521612569e+00 2.7472610827329849e+00 0 0 0
4053 1 2.5873643706497944e+01 6.1662311723637231e-02 2.7780536069579673e+00 0 0 0
4081 1 2.5702820315426926e+01 2.9031213142459915e+00 4.4418916492737992e-02 0 0 0
32 1 1.4407357601906503e+00 4.2800571270719505e+00 1.3152931888324899e+00 0 0 0
513 1 2.8434497590193208e+00 5.7853390536566796e+00 2.7843023240044067e+00 0 0 0
63 1 3.4284544382608062e-03 5.7631106022853373e+00 2.9047671898208396e+00 0 0 0
482 1 4.1866929051591768e+00 4.2622664574920135e+00 1.2854206306185290e+00 0 0 0
963 1 5.6693121088508382e+00 5.6698637201129616e+00 2.9571446304625431e+00 0 0 0
932 1 7.0467999238114603e+00 4.1957903992084162e+00 1.4069684106783216e+00 0 0 0
1413 1 8.5811796937642359e+00 5.7212852979688256e+00 2.6984340403693685e+00 0 0 0
1382 1 1.0020847586859745e+01 4.4459511591644114e+00 1.2347187004244435e+00 0 0 0
1863 1 1.1653622947250101e+01 5.8153266294865773e+00 2.7776248179799632e+00 0 0 0
1832 1 1.3076942588481051e+01 4.3442940308317217e+00 1.2889863417710099e+00 0 0 0
2313 1 1.4534502332761862e+01 5.6886992943343211e+00 2.8452326286339287e+00 0 0 0
2282 1 1.5841421953088039e+01 4.2399616833873628e+00 1.4636211293550576e+00 0 0 0
2732 1 1.8943395915450218e+01 4.1248496577108691e+00 1.2234391904593849e+00 0 0 0
2763 1 1.7486251755686421e+01 5.5711027479420139e+00 2.7582209645011195e+00 0 0 0
2761 1 1.7526316527726159e+01 5.6231417251750617e+00 2.5730612071640735e-02 0 0 0
3213 1 2.0285004228529079e+01 5.6990275150591394e+00 2.7417121725515425e+00 0 0 0
3182 1 2.1699638283507877e+01 4.2903617262180136e+00 1.2862955268581835e+00 0 0 0
3632 1 2.4294474382721766e+01 4.3766914172569074e+00 1.4791631358826518e+00 0 0 0
3663 1 2.2910883559400425e+01 5.8476143269861645e+00 2.7588654467479348e+00 0 0 0
4082 1 2.7211605014036152e+01 4.2059783115806457e+00 1.4336717068592180e+00 0 0 0
4113 1 2.5911627245505379e+01 5.8652540093191536e+00 2.8224317112310402e+00 0 0 0
4111 1 2.5795474535822937e+01 5.7735126794502172e+00 1.0215624640272347e-01 0 0 0
62 1 1.3850549961843688e+00 7.2001190277179132e+00 1.2741915557773544e+00 0 0 0
543 1 2.8568369923128518e+00 8.7235227306780914e+00 2.9472236448078295e+00 0 0 0
512 1 4.2840512255538030e+00 7.2254359982893304e+00 1.4211346906462772e+00 0 0 0
993 1 5.5756514534314308e+00 8.6615584147839080e+00 2.9859356960328114e+00 0 0 0
962 1 6.9671915897349264e+00 7.1701022425417316e+00 1.4075063690358229e+00 0 0 0
1443 1 8.4815397643857526e+00 8.5932539933721461e+00 2.8214138047258870e+00 0 0 0
1441 1 8.5033152319368135e+00 8.5997904158313361e+00 7.6415138809835526e-03 0 0 0
1412 1 1.0059259698670632e+01 7.2096495397993490e+00 1.4156210907563616e+00 0 0 0
1893 1 1.1642116132841567e+01 8.6440299407831045e+00 2.8651341715989296e+00 0 0 0
1862 1 1.3012928319502203e+01 7.0687872272740631e+00 1.2921929225650628e+00 0 0 0
2343 1 1.4395658067970198e+01 8.4858195559659304e+00 2.8791177609672545e+00 0 0 0
2341 1 1.4473779184151491e+01 8.4939178132655577e+00 7.8156858874067151e-04 0 0 0
2312 1 1.5968067820054479e+01 7.1036409273252312e+00 1.3158075087203382e+00 0 0 0
2762 1 1.8898371578339905e+01 7.1365795921009916e+00 1.3206294177254090e+00 0 0 0
2793 1 1.7328456614822418e+01 8.4739044063765334e+00 2.8327722193215541e+00 0 0 0
3212 1 2.1653328917913420e+01 7.1749386814016152e+00 1.3319831223269085e+00 0 0 0
3243 1 2.0245592600007800e+01 8.6137259790968770e+00 2.7465457787984491e+00 0 0 0
3662 1 2.4375652095898545e+01 7.2471405629983598e+00 1.5122665590713225e+00 0 0 0
3693 1 2.2979256070012728e+01 8.5012401614885711e+00 2.9536361470328196e+00 0 0 0
4112 1 2.7344786662953993e+01 7.3530925545293631e+00 1.3700500054940932e+00 0 0 0
4143 1 2.5871848261315787e+01 8.5681272734165059e+00 2.8165896510817707e+00 0 0 0
4141 1 2.5855937421821000e+01 8.7461850393958560e+00 3.2655089532411807e-02 0 0 0
92 1 1.4085887651326592e+00 1.0113149481798795e+01 1.3985994981911127e+00 0 0 0
573 1 2.7834040941393092e+00 1.1573314029452218e+01 3.0600120079177291e+00 0 0 0
122 1 1.5465806204907788e+00 1.2992106032035986e+01 1.4789220052906140e+00 0 0 0
571 1 2.7891249104525202e+00 1.1545820490167729e+01 1.7972669804741770e-02 0 0 0
542 1 4.1839171261939923e+00 1.0079878477962726e+01 1.3457361207219936e+00 0 0 0
1023 1 5.5075766127556580e+00 1.1487608170689517e+01 2.7934220716662730e+00 0 0 0
572 1 4.2109680805971967e+00 1.3066943954679212e+01 1.3927109207813448e+00 0 0 0
992 1 7.0543711866388117e+00 1.0003990764052284e+01 1.4695298101796608e+00 0 0 0
1473 1 8.5443997001421597e+00 1.1600337427001138e+01 2.8319063836239700e+00 0 0 0
1022 1 7.1021500091181284e+00 1.2945517633786396e+01 1.3743851169191146e+00 0 0 0
1442 1 1.0020872488563800e+01 1.0036474104382998e+01 1.4724479603673810e+00 0 0 0
1923 1 1.1478825690303781e+01 1.1495536212996360e+01 2.7783651814679589e+00 0 0 0
1472 1 1.0115851714611287e+01 1.3067713306448496e+01 1.3856776361865626e+00 0 0 0
1921 1 1.1654680143769918e+01 1.1415811387471935e+01 4.0482158067113971e-02 0 0 0
1922 1 1.2957729940041254e+01 1.2900583564995159e+01 1.3843551415929010e+00 0 0 0
1892 1 1.3115461808445396e+01 1.0017925639233049e+01 1.3498167540544481e+00 0 0 0
2373 1 1.4465893527961439e+01 1.1447474627093355e+01 2.7986672995470467e+00 0 0 0
2372 1 1.5846036108462577e+01 1.2885060889620419e+01 1.4545962751610664e+00 0 0 0
2342 1 1.5865474636984825e+01 9.9596657095573651e+00 1.4488936169612712e+00 0 0 0
2792 1 1.8807434647474999e+01 9.9308401167282803e+00 1.3836189832635353e+00 0 0 0
2823 1 1.7237001730885417e+01 1.1546057077070804e+01 2.7030027311471065e+00 0 0 0
2822 1 1.8763557850617534e+01 1.2930346276929962e+01 1.3177022275170338e+00 0 0 0
3242 1 2.1692153210241440e+01 1.0086981101298930e+01 1.3880494991907653e+00 0 0 0
3273 1 2.0158262388210503e+01 1.1392163641850924e+01 2.8567356214272674e+00 0 0 0
3272 1 2.1599549401282033e+01 1.2840010556637328e+01 1.2408959935616986e+00 0 0 0
3692 1 2.4416542165506183e+01 1.0152445077054779e+01 1.3207198382733571e+00 0 0 0
3723 1 2.2979813877555003e+01 1.1604036100196209e+01 2.7862444975469596e+00 0 0 0
3722 1 2.4360450526514374e+01 1.2972510967117099e+01 1.4814779250210373e+00 0 0 0
4142 1 2.7212361991804894e+01 1.0108400129921801e+01 1.3394366677709164e+00 0 0 0
4173 1 2.5895792295657561e+01 1.1482920051547504e+01 2.8308469943683372e+00 0 0 0
4172 1 2.7208220266450581e+01 1.2934791680912433e+01 1.4089546576699372e+00 0 0 0
4171 1 2.5853475223955606e+01 1.1624751478093545e+01 3.8699594242884165e-03 0 0 0
603 1 2.7953321410831835e+00 1.4476094474405341e+01 2.9229218199712945e+00 0 0 0
152 1 1.3762879108592472e+00 1.5760964550390332e+01 1.3046087320888737e+00 0 0 0
1053 1 5.6801907684329791e+00 1.4449249229474585e+01 2.7381864095119757e+00 0 0 0
602 1 4.3677586545506921e+00 1.5928583817637115e+01 1.2509959255742440e+00 0 0 0
1503 1 8.6440668988618921e+00 1.4369689580348300e+01 2.8913217316847790e+00 0 0 0
1052 1 7.0047891278503567e+00 1.5877882975936314e+01 1.3924284098568247e+00 0 0 0
1501 1 8.7967261527189411e+00 1.4398397400286347e+01 2.9423420495383823e-02 0 0 0
1953 1 1.1538858495465115e+01 1.4340554806556471e+01 2.9037742566840068e+00 0 0 0
1502 1 1.0119376606972592e+01 1.5797792671140030e+01 1.4226326732982424e+00 0 0 0
1952 1 1.3031077480736213e+01 1.5729051390492728e+01 1.3805749171486918e+00 0 0 0
2403 1 1.4345312564912460e+01 1.4317284932100051e+01 2.8393854256394677e+00 0 0 0
2401 1 1.4395569172492504e+01 1.4337109237454358e+01 4.9904975002291962e-02 0 0 0
2402 1 1.5874906567932763e+01 1.5826861831660636e+01 1.5020089001070054e+00 0 0 0
2853 1 1.7252292047100319e+01 1.4337378516013517e+01 2.8566850420362537e+00 0 0 0
2852 1 1.8607299844115818e+01 1.5766965382820896e+01 1.3736326905619491e+00 0 0 0
3303 1 2.0034520399485910e+01 1.4356549920633652e+01 2.7573178357354409e+00 0 0 0
3302 1 2.1488095045241433e+01 1.5751245758838731e+01 1.3439613123178333e+00 0 0 0
3753 1 2.2938837266699540e+01 1.4416723478448377e+01 2.7690296143154982e+00 0 0 0
3752 1 2.4446346655192837e+01 1.5660048530027661e+01 1.2560789776131915e+00 0 0 0
4203 1 2.5769439633987599e+01 1.4286406564596998e+01 2.8510145418052879e+00 0 0 0
4202 1 2.7208539333723419e+01 1.5612580179722590e+01 1.3364174904919888e+00 0 0 0
4653 1 2.8491112820964233e+01 1.4252046690677897e+01 2.8559374544816873e+00 0 0 0
182 1 1.4482626244806915e+00 1.8723617226066818e+01 1.4643019182790724e+00 0 0 0
633 1 2.8242335663681888e+00 1.7127487277307416e+01 2.8718869487494065e+00 0 0 0
632 1 4.2874020216514106e+00 1.8759206419154022e+01 1.3124787143237535e+00 0 0 0
1083 1 5.6340106537194297e+00 1.7356977576691179e+01 2.7823913018979582e+00 0 0 0
1082 1 7.1244929097331209e+00 1.8578333992881344e+01 1.3967339138397534e+00 0 0 0
1533 1 8.7075562720141821e+00 1.7281235817271487e+01 2.8334731163719575e+00 0 0 0
1532 1 1.0093474284988305e+01 1.8561136438527356e+01 1.3355220622075239e+00 0 0 0
1983 1 1.1479965686380465e+01 1.7258122755357860e+01 2.8030304692625148e+00 0 0 0
1981 1 1.1561086527464507e+01 1.7191915461559859e+01 1.8010690353278846e-02 0 0 0
1982 1 1.2872561550345036e+01 1.8571963893423920e+01 1.4183100130459054e+00 0 0 0
2433 1 1.4487916504754898e+01 1.7179122954914288e+01 2.7756840375090097e+00 0 0 0
2432 1 1.5827822024617449e+01 1.8753389898544714e+01 1.4613952027699160e+00 0 0 0
2431 1 1.4435586913023267e+01 1.7185835165164370e+01 4.1394117227726721e-02 0 0 0
2882 1 1.8715544942534454e+01 1.8462429897360611e+01 1.4554363362352281e+00 0 0 0
2883 1 1.7346274363433324e+01 1.7146271564990109e+01 2.8390847700449400e+00 0 0 0
2881 1 1.7106552867161856e+01 1.7197687326449124e+01 5.0243521571491381e-02 0 0 0
3333 1 2.0120937152979113e+01 1.7037791791686313e+01 2.8423008398999712e+00 0 0 0
3332 1 2.1604969801049535e+01 1.8483548610073392e+01 1.3785812159045177e+00 0 0 0
3782 1 2.4428160916941515e+01 1.8464263327418440e+01 1.3482707700489838e+00 0 0 0
3783 1 2.2810536405678679e+01 1.6954306675413168e+01 2.7499961519067697e+00 0 0 0
3781 1 2.2989373481845529e+01 1.7042812979044381e+01 3.6742212225000515e-02 0 0 0
4232 1 2.7208746269305077e+01 1.8623863337582915e+01 1.3786205146362935e+00 0 0 0
4233 1 2.5743177619076878e+01 1.7087550990768634e+01 2.8313880572463557e+00 0 0 0
212 1 1.5892052405162171e+00 2.1547127085222282e+01 1.2996850241176103e+00 0 0 0
663 1 2.9518609485751512e+00 2.0113595915087188e+01 2.7868866467320732e+00 0 0 0
693 1 3.0080050980452784e+00 2.2906281285480471e+01 2.6860103883355446e+00 0 0 0
243 1 5.5503233454413117e-02 2.3004382517023984e+01 2.6434117055096924e+00 0 0 0
211 1 7.5964461021911234e-03 2.0137395978419061e+01 2.5388869972232442e-02 0 0 0
662 1 4.3128726966814241e+00 2.1506933015042947e+01 1.0974671219168035e+00 0 0 0
1113 1 5.6546057316605660e+00 2.0104687066522541e+01 2.7321624995026594e+00 0 0 0
1143 1 5.6863750382545017e+00 2.2865826836407059e+01 2.7233364387451768e+00 0 0 0
1112 1 7.1155965094235061e+00 2.1545124795961090e+01 1.2325895287632298e+00 0 0 0
1563 1 8.4812031437165469e+00 1.9929282481301978e+01 2.7762124683879059e+00 0 0 0
1593 1 8.5726987196709334e+00 2.2926893162051691e+01 2.8760073816271174e+00 0 0 0
1562 1 9.9715808706488218e+00 2.1505247342229332e+01 1.4378808976148691e+00 0 0 0
2013 1 1.1390036289581433e+01 2.0100483644200551e+01 2.8076108639687463e+00 0 0 0
2043 1 1.1450674335905273e+01 2.2771162088404271e+01 2.9049704620097994e+00 0 0 0
2041 1 1.1364803675681530e+01 2.2765812660442879e+01 5.3301022108911411e-03 0 0 0
2012 1 1.2870034884098981e+01 2.1437123911068532e+01 1.4298634543438828e+00 0 0 0
2463 1 1.4242668226581552e+01 1.9902609167768361e+01 2.8811178791087948e+00 0 0 0
2493 1 1.4347820565551277e+01 2.2895880821197110e+01 2.8864465336309713e+00 0 0 0
2462 1 1.5770085321968995e+01 2.1437979364484939e+01 1.4461943506108723e+00 0 0 0
2461 1 1.4330393206356622e+01 2.0026021761943994e+01 5.9479499282019788e-02 0 0 0
2912 1 1.8728696106475297e+01 2.1283390113501408e+01 1.4845816765180930e+00 0 0 0
2913 1 1.7248564299227169e+01 1.9981404236399605e+01 2.8130540503955901e+00 0 0 0
2943 1 1.7322137307436407e+01 2.2671305707344331e+01 2.7625934561199093e+00 0 0 0
2941 1 1.7167259577070634e+01 2.2809948199243308e+01 2.7897984620061322e-02 0 0 0
3363 1 2.0114595244053444e+01 1.9832049726215967e+01 2.8376756026181589e+00 0 0 0
3362 1 2.1488017268383850e+01 2.1349581493070531e+01 1.6100876687873793e+00 0 0 0
3393 1 2.0085454030823890e+01 2.2917282516341746e+01 2.8747778116017311e+00 0 0 0
3361 1 1.9982357958412884e+01 1.9902561896407143e+01 5.8128738899029031e-02 0 0 0
3812 1 2.4420388150199472e+01 2.1389493795263149e+01 1.3448737552273877e+00 0 0 0
3813 1 2.2876095215442078e+01 1.9931694381728100e+01 2.7860222432169381e+00 0 0 0
3843 1 2.2965307736981000e+01 2.2859181262707068e+01 2.9762615182086058e+00 0 0 0
3841 1 2.2796294499543915e+01 2.2744782409823696e+01 3.6994569905622421e-01 0 0 0
3811 1 2.3018009948537713e+01 1.9962960680767925e+01 1.0366076569339246e-01 0 0 0
4262 1 2.7299425564517559e+01 2.1424651529948754e+01 1.3722207146317513e+00 0 0 0
4263 1 2.5962913732690890e+01 1.9991470698652595e+01 2.7846968916007642e+00 0 0 0
4293 1 2.5756074461169824e+01 2.2820285870660346e+01 2.7704022132607524e+00 0 0 0
4261 1 2.5716537619866603e+01 1.9905660167590522e+01 1.9416391754617734e-02 0 0 0
242 1 1.4901751049675087e+00 2.4268809886154497e+01 1.1966643637665875e+00 0 0 0
723 1 2.8861858657167616e+00 2.5705213454614228e+01 2.6741944985603281e+00 0 0 0
273 1 1.1555042374919279e-01 2.5683336769704546e+01 2.7323175973089660e+00 0 0 0
692 1 4.3798266673806667e+00 2.4411626614463827e+01 1.2196675791845331e+00 0 0 0
1173 1 5.7559254771429949e+00 2.5703034032423584e+01 2.7089088210232362e+00 0 0 0
1142 1 7.0782070959753911e+00 2.4328324430138654e+01 1.3686247331306687e+00 0 0 0
1623 1 8.5921168758223612e+00 2.5743438699858210e+01 2.8537393014383032e+00 0 0 0
1592 1 1.0090290399566561e+01 2.4337456568562459e+01 1.3802984603065613e+00 0 0 0
2073 1 1.1413568360093205e+01 2.5683642400949289e+01 2.8205155182039965e+00 0 0 0
2042 1 1.2865255169359404e+01 2.4264911329302997e+01 1.3312354538511653e+00 0 0 0
2523 1 1.4481170161711109e+01 2.5547111716184386e+01 2.8619786287388820e+00 0 0 0
2492 1 1.5816913578114661e+01 2.4192093505011623e+01 1.4320707260698509e+00 0 0 0
2942 1 1.8660673854424321e+01 2.4325343744887814e+01 1.3959847556793987e+00 0 0 0
2973 1 1.7157469820887783e+01 2.5546989059682669e+01 2.7739640622639001e+00 0 0 0
2971 1 1.7306333169013104e+01 2.5666481732613409e+01 1.2987154490559760e-02 0 0 0
3423 1 2.0059167366520413e+01 2.5620548068216721e+01 2.7520548929945785e+00 0 0 0
3392 1 2.1360525873007916e+01 2.4312302291044436e+01 1.4260559720257706e+00 0 0 0
3842 1 2.4216890132262645e+01 2.4366967337810305e+01 1.2809971576789529e+00 0 0 0
3873 1 2.2932466722598214e+01 2.5659416164459333e+01 2.7585664733724382e+00 0 0 0
4323 1 2.5721864318547794e+01 2.5715602023705788e+01 2.8274338466834767e+00 0 0 0
4292 1 2.7228467189078248e+01 2.4234530768150609e+01 1.5418027608504110e+00 0 0 0
4321 1 2.5892953131282340e+01 2.5880615670702767e+01 3.5572772898748700e-01 0 0 0
272 1 1.4070637814649380e+00 2.7124277087118831e+01 1.3865208139448235e+00 0 0 0
753 1 2.8144814229449659e+00 2.8664595084825653e+01 2.5931037615988624e+00 0 0 0
303 1 4.7254324509783063e-02 2.8573478762557997e+01 2.8763880636040202e+00 0 0 0
722 1 4.3054202627558178e+00 2.7133706813337007e+01 1.1709374255532314e+00 0 0 0
1203 1 5.7628394711971049e+00 2.8560760026952348e+01 2.6372123208604301e+00 0 0 0
1172 1 7.3141538279238141e+00 2.6998203047127969e+01 1.2571022862839931e+00 0 0 0
1653 1 8.6938988528601779e+00 2.8583687347990562e+01 2.7215865751491735e+00 0 0 0
1622 1 9.9849930564658749e+00 2.7093036172222714e+01 1.3541107998971453e+00 0 0 0
2103 1 1.1592586888088450e+01 2.8387265807261695e+01 2.8017447837468628e+00 0 0 0
2072 1 1.3027890942431528e+01 2.6990489934841019e+01 1.4330000435471870e+00 0 0 0
2553 1 1.4451320292559334e+01 2.8383876977417344e+01 2.9020145883180408e+00 0 0 0
2522 1 1.5769216173211101e+01 2.7076023269536403e+01 1.3668852203616524e+00 0 0 0
2551 1 1.4439918376396275e+01 2.8527086286304620e+01 4.0518978662554161e-02 0 0 0
2972 1 1.8588196030131918e+01 2.7156245065874241e+01 1.4739378502346125e+00 0 0 0
3003 1 1.7157029968281694e+01 2.8503766754273926e+01 2.9489228731320192e+00 0 0 0
3422 1 2.1504543156634654e+01 2.7146039455027370e+01 1.3392233734010257e+00 0 0 0
3453 1 2.0013014478468452e+01 2.8465266051109232e+01 2.7756209843010735e+00 0 0 0
3872 1 2.4280817070287529e+01 2.7120557575609194e+01 1.5156313079509960e+00 0 0 0
3903 1 2.2782008950490681e+01 2.8519103921187401e+01 2.9203799587968229e+00 0 0 0
4322 1 2.7427541331728772e+01 2.7104669409401158e+01 1.4719092448481756e+00 0 0 0
4353 1 2.6042059529897088e+01 2.8491618073995273e+01 2.8632729934510102e+00 0 0 0
4351 1 2.5874364294882589e+01 2.8594207887463057e+01 1.7766226968411242e-01 0 0 0
302 1 1.4963467457149402e+00 3.0050686593967299e+01 1.2638982895449675e+00 0 0 0
783 1 2.8905773391690541e+00 3.1374487654815507e+01 2.7603355484018341e+00 0 0 0
332 1 1.4000796378738767e+00 3.2836862489954449e+01 1.4265991033094854e+00 0 0 0
752 1 4.4162146324257865e+00 3.0066437445240634e+01 1.1938745897917979e+00 0 0 0
1233 1 5.6941918327905583e+00 3.1248701615616035e+01 2.7949881227723177e+00 0 0 0
782 1 4.2810694108554515e+00 3.2870730673953858e+01 1.2625030662272210e+00 0 0 0
1202 1 7.1780555984594514e+00 2.9919092380962056e+01 1.2651959808446931e+00 0 0 0
1683 1 8.5155377910156140e+00 3.1408696406083966e+01 2.7167362978676262e+00 0 0 0
1232 1 7.1123629772963897e+00 3.2722867379164434e+01 1.3172346213595743e+00 0 0 0
1652 1 1.0094792056923207e+01 2.9897418671633059e+01 1.2348003260129674e+00 0 0 0
2133 1 1.1474246871455472e+01 3.1247279183147874e+01 2.7066035624930440e+00 0 0 0
1682 1 1.0000268723055695e+01 3.2727732413988626e+01 1.4067063852057258e+00 0 0 0
2132 1 1.2881384776597351e+01 3.2911026435123127e+01 1.4868101034916394e+00 0 0 0
2102 1 1.2967180842328524e+01 2.9868379902476835e+01 1.2182996082406325e+00 0 0 0
2583 1 1.4331896085457434e+01 3.1275592572617452e+01 2.8219682265442083e+00 0 0 0
2582 1 1.5728567727858632e+01 3.2764152533252876e+01 1.5484375732149944e+00 0 0 0
2552 1 1.5889251241426225e+01 2.9970157625709017e+01 1.2756894915611798e+00 0 0 0
3002 1 1.8529635174117910e+01 2.9880773488789380e+01 1.4044190864754431e+00 0 0 0
3033 1 1.7177631992771364e+01 3.1368700414707543e+01 2.9422951209410098e+00 0 0 0
3032 1 1.8632487163613764e+01 3.2886528102583384e+01 1.5429602867993208e+00 0 0 0
3452 1 2.1523811853029958e+01 2.9953675901775462e+01 1.3698408706417118e+00 0 0 0
3483 1 2.0085269499516677e+01 3.1340165826425189e+01 2.8036229529153811e+00 0 0 0
3482 1 2.1553879159906131e+01 3.2600573512738130e+01 1.2787207069707029e+00 0 0 0
3481 1 1.9993993404518978e+01 3.1338226573797275e+01 1.3276334913548737e-02 0 0 0
3902 1 2.4428138251746361e+01 2.9961765901278941e+01 1.3966106463831476e+00 0 0 0
3933 1 2.2860053691711123e+01 3.1295135777818615e+01 2.7971322863292598e+00 0 0 0
3932 1 2.4348933869826528e+01 3.2731476888741241e+01 1.3267768093527199e+00 0 0 0
4352 1 2.7412189735168255e+01 2.9812725497639885e+01 1.5628639095601473e+00 0 0 0
4383 1 2.5951220359145019e+01 3.1405961896354544e+01 2.9801444351665682e+00 0 0 0
4382 1 2.7252155179836528e+01 3.2835406816988893e+01 1.4909142893033764e+00 0 0 0
4381 1 2.5851806493227578e+01 3.1413635024677124e+01 6.0518231281108115e-03 0 0 0
362 1 1.4685272415875636e+00 3.5697464861058464e+01 1.3756293556179315e+00 0 0 0
813 1 2.8766059612371517e+00 3.4185299310383073e+01 2.6700641421778801e+00 0 0 0
1263 1 5.7872873644832135e+00 3.4283527221687912e+01 2.7863861044299103e+00 0 0 0
812 1 4.4233007543576619e+00 3.5794385676432491e+01 1.2217348749808052e+00 0 0 0
1713 1 8.6750601056527437e+00 3.4089593528972159e+01 2.7317702619881339e+00 0 0 0
1262 1 7.3386634066342351e+00 3.5710831932262046e+01 1.4886645409366170e+00 0 0 0
2163 1 1.1473725949424471e+01 3.4263576049273212e+01 2.7948667291684752e+00 0 0 0
1712 1 1.0253358122747420e+01 3.5565897534113788e+01 1.3593367371184211e+00 0 0 0
2162 1 1.2996337457274711e+01 3.5696686225994839e+01 1.4466505571559773e+00 0 0 0
2613 1 1.4353411106186497e+01 3.4232883636313886e+01 2.9014263745502236e+00 0 0 0
2611 1 1.4438174561837059e+01 3.4259249214180088e+01 7.0849367892627413e-02 0 0 0
2612 1 1.5864996308012763e+01 3.5755505701094464e+01 1.3898998935865026e+00 0 0 0
3063 1 1.7163904979398996e+01 3.4276986004899030e+01 2.9026585339379700e+00 0 0 0
3062 1 1.8807352439979709e+01 3.5675712583546428e+01 1.3970186418895594e+00 0 0 0
3513 1 2.0152408878771073e+01 3.4307254764991967e+01 2.8929396265396163e+00 0 0 0
3512 1 2.1461917550237345e+01 3.5673973072603701e+01 1.4734065877502358e+00 0 0 0
3511 1 2.0149459547187455e+01 3.4187983362497604e+01 2.6166267824611157e-02 0 0 0
3963 1 2.2799070024948410e+01 3.4149702689466402e+01 2.8246653652649920e+00 0 0 0
3962 1 2.4361294324976644e+01 3.5604866351385773e+01 1.3804730535851699e+00 0 0 0
3961 1 2.2902988921117249e+01 3.4135521204400746e+01 5.2293097246855123e-02 0 0 0
4413 1 2.5741971213564188e+01 3.4156831883787483e+01 2.9205495224329572e+00 0 0 0
4412 1 2.7180691470449474e+01 3.5520373433162590e+01 1.5409892686128144e+00 0 0 0
392 1 1.5516859028070265e+00 3.8498317648162413e+01 1.2911657584953693e+00 0 0 0
843 1 3.0026505371158678e+00 3.7118222861230393e+01 2.6988227220751777e+00 0 0 0
842 1 4.2847265811982727e+00 3.8465335958535185e+01 1.4569498225042252e+00 0 0 0
1293 1 5.8376794430441787e+00 3.7184220996989318e+01 2.9282860847122070e+00 0 0 0
1291 1 5.9698914073458900e+00 3.7047784672325427e+01 9.8114299085096945e-03 0 0 0
1292 1 7.3339867422991762e+00 3.8618796949937327e+01 1.2135766796496379e+00 0 0 0
1743 1 8.8056254239223151e+00 3.7093166918720058e+01 2.9169454460036603e+00 0 0 0
1742 1 1.0131754806528683e+01 3.8567991052217266e+01 1.3169598415470765e+00 0 0 0
2193 1 1.1667763293682659e+01 3.7032451264975343e+01 2.8221646471411983e+00 0 0 0
2192 1 1.2969373187115069e+01 3.8491718510595923e+01 1.3089964222487545e+00 0 0 0
2643 1 1.4510078732335524e+01 3.6991363410217076e+01 3.0266190922420195e+00 0 0 0
2642 1 1.5901945184068389e+01 3.8501892703221152e+01 1.2911527133349523e+00 0 0 0
3092 1 1.8802489502383583e+01 3.8581084829781496e+01 1.3273175543518609e+00 0 0 0
3093 1 1.7304533050021426e+01 3.7101825136558013e+01 2.8443154850598802e+00 0 0 0
3543 1 2.0029038480634636e+01 3.7121794445053865e+01 2.9139959335924521e+00 0 0 0
3542 1 2.1576479185782080e+01 3.8580795466533722e+01 1.3228864863157384e+00 0 0 0
3541 1 2.0128901001522653e+01 3.7105330072397166e+01 1.8027555654605010e-02 0 0 0
3992 1 2.4476262684159373e+01 3.8535576073506938e+01 1.2041799290882658e+00 0 0 0
3993 1 2.2990211910927428e+01 3.7119274806412925e+01 2.8029950013197427e+00 0 0 0
4442 1 2.7163760325829895e+01 3.8453025937554443e+01 1.5441453104433438e+00 0 0 0
4443 1 2.5711993473562956e+01 3.6970907390397791e+01 2.8621745023656238e+00 0 0 0
4891 1 2.8498976030717181e+01 3.7099073887000159e+01 4.4387487328576919e-02 0 0 0
422 1 1.3985420381494127e+00 4.1407518574671698e+01 1.4363889040520219e+00 0 0 0
873 1 2.8773832521270899e+00 3.9912843007462548e+01 2.8516966414471674e+00 0 0 0
451 1 2.7790477612775111e+00 4.2659764148148206e+01 8.6771325479068573e-02 0 -1 0
423 1 1.2414799743354380e-02 3.9821426492091994e+01 2.8138942675392165e+00 0 0 0
903 1 5.8090918334274813e+00 4.2771273373750738e+01 2.9763333985989342e+00 0 -1 0
872 1 4.2949101368121116e+00 4.1327615099831689e+01 1.5384140556796317e+00 0 0 0
1323 1 5.8318008830807750e+00 3.9830049988359001e+01 2.7809490374843584e+00 0 0 0
1353 1 8.6645997249959859e+00 4.2724253238010370e+01 2.7754088565476285e+00 0 -1 0
1322 1 7.2972606140855651e+00 4.1313820298409908e+01 1.3921310491767294e+00 0 0 0
1773 1 8.7236690142730016e+00 3.9805271851543807e+01 2.8360947934829590e+00 0 0 0
1803 1 1.1541218604229767e+01 4.2798257142449124e+01 2.7828721125203848e+00 0 -1 0
1772 1 1.0060613655306710e+01 4.1345938255718572e+01 1.4056122728731368e+00 0 0 0
2223 1 1.1641259648354293e+01 3.9837089392145081e+01 2.8706919359251346e+00 0 0 0
2253 1 1.4343710843637092e+01 4.2717804461361489e+01 2.8455326562009380e+00 0 -1 0
2222 1 1.2869845692687685e+01 4.1346654743882766e+01 1.3215612663405785e+00 0 0 0
2673 1 1.4463738870422871e+01 3.9859993861928551e+01 2.6638222825946820e+00 0 0 0
2672 1 1.5759292069594888e+01 4.1452128980397418e+01 1.3289075835602480e+00 0 0 0
2703 1 1.7381470471158032e+01 4.2766577883961936e+01 2.7286412071220312e+00 0 -1 0
3122 1 1.8774683536328741e+01 4.1396448661073272e+01 1.3748902018350144e+00 0 0 0
3123 1 1.7328169442404452e+01 3.9873443194211731e+01 2.6584888824334243e+00 0 0 0
3573 1 2.0271893718422373e+01 3.9936146855307108e+01 2.7971554834833148e+00 0 0 0
3572 1 2.1692564776542131e+01 4.1297678142754393e+01 1.4818474474762884e+00 0 0 0
4022 1 2.4405253236663111e+01 4.1457370118879538e+01 1.2971503224242220e+00 0 0 0
4023 1 2.3174801029512341e+01 4.0045150639494480e+01 2.7871018831257417e+00 0 0 0
4473 1 2.5673736865200034e+01 4.0006885260470597e+01 2.8410992414549492e+00 0 0 0
4472 1 2.7165378024121487e+01 4.1481843734023030e+01 1.3517476364001888e+00 0 0 0
4 1 1.4448877032134206e+00 1.2869036572414085e+00 4.3911390119914993e+00 0 0 0
485 1 2.8114534796865622e+00 2.8242958934277071e+00 5.7777758276824702e+00 0 0 0
454 1 4.3100830505053391e+00 1.4731727941097457e+00 4.2779430820688686e+00 0 0 0
935 1 5.6811736865433629e+00 2.8890032352547816e+00 5.5963028048129937e+00 0 0 0
904 1 7.2672368675393200e+00 1.3762656669851976e+00 4.1642913780810238e+00 0 0 0
1385 1 8.7376434410857247e+00 2.9452931761909946e+00 5.4818027361833623e+00 0 0 0
1354 1 1.0123351378902969e+01 1.4525713082545701e+00 4.1544427804025039e+00 0 0 0
1835 1 1.1467159597676023e+01 2.7874778133721856e+00 5.7570985570115516e+00 0 0 0
1804 1 1.3032296752829996e+01 1.3494490587764041e+00 4.1711175623716858e+00 0 0 0
2285 1 1.4443627075029534e+01 2.8363198945761594e+00 5.7163767001863546e+00 0 0 0
2255 1 1.4410071009833890e+01 4.7665935080302382e-02 5.6900754808140048e+00 0 0 0
2254 1 1.6056244479533856e+01 1.3799478001361363e+00 4.1993268471222134e+00 0 0 0
2704 1 1.8865480155519130e+01 1.3870753471848201e+00 4.2445529255909493e+00 0 0 0
2735 1 1.7379285557956855e+01 2.8312309591220521e+00 5.7496842199884126e+00 0 0 0
3185 1 2.0240409608178975e+01 2.8831951120374035e+00 5.8165771753806537e+00 0 0 0
3154 1 2.1694331437912091e+01 1.6366580405815179e+00 4.2671926739484229e+00 0 0 0
3604 1 2.4499348348751695e+01 1.4384890476979830e+00 4.2466813017802396e+00 0 0 0
3635 1 2.2955998544263185e+01 3.0162782452233761e+00 5.7238851359512273e+00 0 0 0
3605 1 2.3026133404655592e+01 4.2795535643548988e-02 5.7258666182945905e+00 0 0 0
4085 1 2.5843824391965509e+01 2.9035563012386416e+00 5.7023706998557868e+00 0 0 0
4054 1 2.7265385528727617e+01 1.4250383780753744e+00 4.3609742802921847e+00 0 0 0
4055 1 2.5765167182419770e+01 4.4100292769556404e-02 5.7774849025242672e+00 0 0 0
34 1 1.3771350249668011e+00 4.3097290450852102e+00 4.2245660665822573e+00 0 0 0
515 1 2.8038188413570118e+00 5.6616211502728788e+00 5.7876484243530291e+00 0 0 0
484 1 4.2139932454000713e+00 4.2362337175406450e+00 4.2308634306409827e+00 0 0 0
965 1 5.8580350799939840e+00 5.6436262794952485e+00 5.6254395253356906e+00 0 0 0
934 1 7.0852095820999530e+00 4.1412435723018337e+00 4.1210306846976392e+00 0 0 0
1415 1 8.6087805553571535e+00 5.6342435040362018e+00 5.2209044492921386e+00 0 0 0
1384 1 1.0057409453019615e+01 4.4089142850379472e+00 4.0334478894567072e+00 0 0 0
1865 1 1.1472309909548752e+01 5.8038318796319386e+00 5.7235548270817258e+00 0 0 0
1834 1 1.2781213973626160e+01 4.3442450304563618e+00 4.3011072785338875e+00 0 0 0
2315 1 1.4470696136801237e+01 5.6529332867406410e+00 5.6498032391285049e+00 0 0 0
2284 1 1.5723775328752973e+01 4.1704721317085864e+00 4.2766994896703796e+00 0 0 0