LAMMPS data file via write_data, version 7 Aug 2019, timestep = 29000

9000 atoms
1 atom types

-1.2454929418246455e-04 5.7106124549294186e+01 xlo xhi
-9.3411970636848420e-05 4.2829593411970642e+01 ylo yhi
-9.3411970636848420e-05 4.2829593411970642e+01 zlo zhi

Masses

1 56

Atoms # atomic

2 1 1.5296633727869928e+00 1.5907672393600640e+00 1.4443251237030688e+00 0 0 0
483 1 3.0166470293735710e+00 2.8960976514460075e+00 2.8250259650367218e+00 0 0 0
481 1 2.8712424012684967e+00 2.9062619989843985e+00 7.1833469163757990e-02 0 0 0
453 1 2.9208517529605680e+00 1.8363457049384850e-02 2.6708177657549292e+00 0 0 0
451 1 3.1248011349344278e+00 8.1890027176478308e-02 8.7757482582596705e-02 0 0 0
33 1 5.2159745110307972e-02 2.9257034824846020e+00 2.8031163792758047e+00 0 0 0
3 1 1.2052052127308582e-01 8.0419502084485006e-02 2.6664476237806944e+00 0 0 0
31 1 1.1438187826660061e-01 2.8932923368172418e+00 1.5659691608073856e-01 0 0 0
452 1 4.4380527089361479e+00 1.5718343219399911e+00 1.4571322685151671e+00 0 0 0
933 1 5.7713117951624140e+00 2.9201402462955341e+00 2.8088061518910847e+00 0 0 0
901 1 5.7208240085629880e+00 8.8156533433240994e-02 7.6584830732430928e-03 0 0 0
931 1 5.7896161216776019e+00 2.9392471818707180e+00 1.7654811647293722e-02 0 0 0
902 1 7.1705377974224715e+00 1.4665187895720808e+00 1.4467798344497513e+00 0 0 0
1383 1 8.6496041252428526e+00 2.9417159015350030e+00 2.8992523110044597e+00 0 0 0
1352 1 9.9868874043609672e+00 1.4216520204278578e+00 1.4024295554608899e+00 0 0 0
1833 1 1.1362649179807065e+01 2.9851950704628316e+00 2.9540882332755252e+00 0 0 0
1803 1 1.1376318013284511e+01 3.8469024923308552e-02 2.8757249482732075e+00 0 0 0
1802 1 1.2698870028288763e+01 1.4852149895642659e+00 1.3507543913379518e+00 0 0 0
2283 1 1.4116876250641743e+01 2.9311931531052187e+00 2.8722594590417510e+00 0 0 0
2252 1 1.5423128844912807e+01 1.4345797937540454e+00 1.4406126682185691e+00 0 0 0
2253 1 1.4030462610382910e+01 3.6908809322785924e-02 2.9193699055038964e+00 0 0 0
2702 1 1.8379251835328695e+01 1.4376686349791252e+00 1.4244976889753886e+00 0 0 0
2733 1 1.6930678505189462e+01 2.8281073469797957e+00 2.9350619231355988e+00 0 0 0
2731 1 1.6914535146637178e+01 2.9768281483865087e+00 3.2027297303812048e-02 0 0 0
3183 1 1.9705075134993955e+01 2.9256483535397244e+00 3.0057097799023675e+00 0 0 0
3152 1 2.1166482426961096e+01 1.4150010513285798e+00 1.4463351426231903e+00 0 0 0
3181 1 1.9898096577127337e+01 2.7916375863310594e+00 4.3758162260535562e-02 0 0 0
3602 1 2.4044991405211942e+01 1.4380660533375451e+00 1.4008851247492915e+00 0 0 0
3633 1 2.2562014371826756e+01 2.9267726731857282e+00 2.9137655263111184e+00 0 0 0
3603 1 2.2860034630575150e+01 2.3424949494679721e-02 2.9062020790910026e+00 0 0 0
4083 1 2.5654018940188660e+01 2.7959735602368920e+00 2.7253625550604568e+00 0 0 0
4052 1 2.7021952148583882e+01 1.4275044873500105e+00 1.3899645884093468e+00 0 0 0
4053 1 2.5537335615033363e+01 1.7244135161190827e-01 2.8799358150148739e+00 0 0 0
4081 1 2.5514908272611322e+01 2.9546929798064112e+00 4.5088301103390904e-04 0 0 0
4531 1 2.8502389232163466e+01 3.0999522691248758e+00 2.3653314835717426e-01 0 0 0
4501 1 2.8297877900133194e+01 1.4058462405624531e-02 2.2962185681774817e-03 0 0 0
4533 1 2.8362036457949074e+01 2.8306019191306611e+00 2.9633466942849873e+00 0 0 0
32 1 1.5616924012206894e+00 4.3179961915135774e+00 1.5009045693402951e+00 0 0 0
513 1 2.9786939213380057e+00 5.7816785928581451e+00 2.8476583797202277e+00 0 0 0
511 1 2.9298880352309320e+00 5.6845454410804557e+00 5.0549983130956230e-03 0 0 0
63 1 1.5471014691285914e-01 5.7016981311339956e+00 2.8856770094064745e+00 0 0 0
482 1 4.3326065536450660e+00 4.3443665528822901e+00 1.3164839509766759e+00 0 0 0
963 1 5.7612064779808803e+00 5.7778809668261353e+00 2.8942014858645768e+00 0 0 0
961 1 5.6955357639853483e+00 5.8283112384725868e+00 1.1199137920962367e-01 0 0 0
932 1 7.1730881878960240e+00 4.2538745673731730e+00 1.3885679884291038e+00 0 0 0
1413 1 8.5352508376535585e+00 5.8358331240651786e+00 2.8662833786144137e+00 0 0 0
1411 1 8.4832626672378275e+00 5.7717952877416883e+00 1.3770745634439622e-02 0 0 0
1382 1 9.7826451856668264e+00 4.2182726551004235e+00 1.3148018223132727e+00 0 0 0
1863 1 1.1394868360422942e+01 5.7190006872754457e+00 2.9016598704848078e+00 0 0 0
1861 1 1.1374285393333681e+01 5.7608132034715407e+00 1.4217531800243965e-02 0 0 0
1832 1 1.2747408931106300e+01 4.2575307813712397e+00 1.3706421249740330e+00 0 0 0
2313 1 1.4078879478180443e+01 5.8249314867245605e+00 2.8425044477815993e+00 0 0 0
2282 1 1.5507693572405763e+01 4.2548177017991229e+00 1.4726808659844004e+00 0 0 0
2311 1 1.4186113143073651e+01 5.6751940705464863e+00 6.4870760558472920e-02 0 0 0
2732 1 1.8258816131823313e+01 4.1871585246528058e+00 1.5111096507123596e+00 0 0 0
2763 1 1.6845029577269948e+01 5.7740820778298145e+00 2.8665423378492330e+00 0 0 0
3213 1 1.9861046290474619e+01 5.6349658421528925e+00 2.7087109623822530e+00 0 0 0
3182 1 2.1265488270645655e+01 4.2214231057384373e+00 1.3464582918406816e+00 0 0 0
3632 1 2.4127270541895228e+01 4.2870028372924542e+00 1.4328538402741575e+00 0 0 0
3663 1 2.2584592364362571e+01 5.6848358116850539e+00 2.8277443836263081e+00 0 0 0
4082 1 2.6943165768020357e+01 4.4602466134310630e+00 1.3947246153732813e+00 0 0 0
4113 1 2.5552957354262656e+01 5.7683146482493814e+00 2.9127617782805117e+00 0 0 0
4561 1 2.8504566255881638e+01 5.8547771875085104e+00 3.3047576635347575e-02 0 0 0
4563 1 2.8382587724419228e+01 5.8175908886318668e+00 2.8929912969945284e+00 0 0 0
62 1 1.4719130965450278e+00 7.1272097828105254e+00 1.2703821630044709e+00 0 0 0
543 1 2.9332830476288860e+00 8.6629751703462130e+00 2.8770287690998178e+00 0 0 0
93 1 2.6077267532967624e-01 8.4855150729129463e+00 2.7970039854259743e+00 0 0 0
512 1 4.2924270607331145e+00 7.1718770449353650e+00 1.4176287089014703e+00 0 0 0
993 1 5.7438033904000347e+00 8.6545386153127577e+00 2.8230436369282379e+00 0 0 0
991 1 5.7327800890422340e+00 8.5671003725024057e+00 1.9885800680205787e-01 0 0 0
962 1 7.2225846043537221e+00 7.3125025998318609e+00 1.4411970820750342e+00 0 0 0
1443 1 8.5348744254353690e+00 8.5911558352230308e+00 2.8489270456391798e+00 0 0 0
1441 1 8.5296229277151170e+00 8.6209046070209059e+00 6.1524906182712947e-04 0 0 0
1412 1 9.8810533396517446e+00 7.1017669064468336e+00 1.4650842087294744e+00 0 0 0
1893 1 1.1300368280436178e+01 8.5841440419883277e+00 2.8222141841380100e+00 0 0 0
1891 1 1.1380543601026552e+01 8.6802117106404175e+00 2.2814975951348515e-02 0 0 0
1862 1 1.2793507879570353e+01 7.1565782671310076e+00 1.3548527588476791e+00 0 0 0
2343 1 1.3906227888541489e+01 8.5874643813546516e+00 2.7542018982836218e+00 0 0 0
2312 1 1.5582327891305992e+01 7.2382633279795288e+00 1.4067833577392799e+00 0 0 0
2762 1 1.8371672140234580e+01 7.0663514910212992e+00 1.3774252097617341e+00 0 0 0
2793 1 1.7049071874256352e+01 8.5843119251506828e+00 2.8251165330312107e+00 0 0 0
3212 1 2.1242941949433575e+01 7.1723790704582449e+00 1.4663081159652300e+00 0 0 0
3243 1 1.9648456504932824e+01 8.5566972618743691e+00 2.9259431075585445e+00 0 0 0
3241 1 1.9871676297447777e+01 8.5457416962262922e+00 9.9125848618218507e-02 0 0 0
3662 1 2.4047227847703471e+01 7.0897562214678542e+00 1.4193181427459387e+00 0 0 0
3693 1 2.2676731594011351e+01 8.5739265558536442e+00 2.9197421758403341e+00 0 0 0
3691 1 2.2642756215397888e+01 8.6456567089203205e+00 1.6298756797155839e-02 0 0 0
4112 1 2.6954541444641247e+01 7.1830162682344829e+00 1.4698318192196984e+00 0 0 0
4143 1 2.5555787373933022e+01 8.4499844448805970e+00 2.9457199899779782e+00 0 0 0
4141 1 2.5478054079037626e+01 8.6056207422775834e+00 4.6107464340422191e-02 0 0 0
4593 1 2.8406176920377966e+01 8.7013047122379881e+00 2.7717582082296017e+00 0 0 0
92 1 1.5468419643727400e+00 9.9286536349727932e+00 1.2755661778321645e+00 0 0 0
573 1 2.8459058237001411e+00 1.1480618809210906e+01 2.6959681956570414e+00 0 0 0
122 1 1.4857277341668753e+00 1.2867229611336429e+01 1.3953511363609290e+00 0 0 0
123 1 1.3906136953420703e-01 1.1312766168537594e+01 2.8679204647739573e+00 0 0 0
542 1 4.2353785619332198e+00 9.9337142604173376e+00 1.3211953816826403e+00 0 0 0
1023 1 5.8166983414427822e+00 1.1483228086229602e+01 2.5528508980801985e+00 0 0 0
572 1 4.3486932066969803e+00 1.2807799275677002e+01 1.2677434471238274e+00 0 0 0
992 1 7.1415580405703745e+00 1.0104700812234347e+01 1.4099164203562009e+00 0 0 0
1473 1 8.6299276620763390e+00 1.1436955554663035e+01 2.7679974337825586e+00 0 0 0
1022 1 7.2345875264602597e+00 1.2816814993522472e+01 1.3812185566507680e+00 0 0 0
1442 1 9.8624396864658213e+00 1.0024229150909505e+01 1.3172266039541682e+00 0 0 0
1923 1 1.1340711559041313e+01 1.1454233392159255e+01 2.7713862170635233e+00 0 0 0
1472 1 9.9112896665291288e+00 1.2956082260834785e+01 1.2918187935628740e+00 0 0 0
1892 1 1.2808411813875772e+01 1.0084457433651886e+01 1.3898566120796223e+00 0 0 0
2342 1 1.5503561592513062e+01 1.0141192577832758e+01 1.3918318829271996e+00 0 0 0
1922 1 1.2731112643686856e+01 1.2851731787106671e+01 1.4554102881835058e+00 0 0 0
2373 1 1.4226762091143266e+01 1.1466368638892721e+01 2.8897060218603876e+00 0 0 0
2372 1 1.5569378583279970e+01 1.2990916363785068e+01 1.4394674292533147e+00 0 0 0
2371 1 1.4235546624936788e+01 1.1512271932454874e+01 9.5987807448445039e-02 0 0 0
2792 1 1.8444140302832508e+01 1.0085717729166792e+01 1.3296810647113289e+00 0 0 0
2823 1 1.7033667905859751e+01 1.1494249406123400e+01 2.7520478703364435e+00 0 0 0
2822 1 1.8403415211043807e+01 1.2976661115760576e+01 1.4063375740879580e+00 0 0 0
2821 1 1.6949496757337180e+01 1.1529882935069720e+01 4.4639010965841046e-02 0 0 0
3242 1 2.1053199496371640e+01 1.0014564704429622e+01 1.4864280635436589e+00 0 0 0
3273 1 1.9774846800285918e+01 1.1406818242317467e+01 2.8982727529980430e+00 0 0 0
3272 1 2.1185977624468162e+01 1.2876114920711860e+01 1.3566829411783374e+00 0 0 0
3692 1 2.4028932000200321e+01 9.9637819469419835e+00 1.5851433871218346e+00 0 0 0
3723 1 2.2471551450368409e+01 1.1414478238073833e+01 2.7983773119481872e+00 0 0 0
3722 1 2.4039885128733072e+01 1.2762466965033394e+01 1.5096744453623447e+00 0 0 0
3721 1 2.2774530847597052e+01 1.1451714221158287e+01 3.1572240000972099e-02 0 0 0
4142 1 2.7013615845582788e+01 1.0051581825444670e+01 1.3512154331554223e+00 0 0 0
4173 1 2.5470681025966300e+01 1.1432756481029852e+01 2.7367527785600809e+00 0 0 0
4172 1 2.6801361530534383e+01 1.2857600311660999e+01 1.5146671669365384e+00 0 0 0
4623 1 2.8401213571810217e+01 1.1379650152609818e+01 2.7303665282567890e+00 0 0 0
603 1 3.0117857479650132e+00 1.4170675507981002e+01 2.9001093829548887e+00 0 0 0
152 1 1.7027525935840147e+00 1.5581523589016287e+01 1.4232915261611450e+00 0 0 0
601 1 2.8817655126994253e+00 1.4142179898156622e+01 4.3316012097241924e-02 0 0 0
153 1 3.1184132137784853e-01 1.4214022462639534e+01 2.8689208008256957e+00 0 0 0
1053 1 5.7393986834775985e+00 1.4289214720104347e+01 2.7197146685538653e+00 0 0 0
602 1 4.3122488068658109e+00 1.5620764006072395e+01 1.3948368765473882e+00 0 0 0
1051 1 5.8285140365684960e+00 1.4225904815803160e+01 1.0442313404382730e-02 0 0 0
1503 1 8.4930299064876031e+00 1.4238420783302177e+01 2.6828307678461232e+00 0 0 0
1052 1 7.1615065892994112e+00 1.5737728976263131e+01 1.2734007914134617e+00 0 0 0
1953 1 1.1326345513965540e+01 1.4261706847587080e+01 2.7992637456368721e+00 0 0 0
1502 1 9.9073845315406484e+00 1.5646149577895841e+01 1.3053509235494276e+00 0 0 0
1951 1 1.1446516906851151e+01 1.4124914775644083e+01 2.3934020380680217e-02 0 0 0
1952 1 1.2701405370865499e+01 1.5600446562884285e+01 1.4262242096328777e+00 0 0 0
2403 1 1.4116664959704950e+01 1.4416570336994795e+01 2.8866064800309315e+00 0 0 0
2402 1 1.5647577994043495e+01 1.5624953004759510e+01 1.3849567687032356e+00 0 0 0
2401 1 1.4146059960524688e+01 1.4350763415499818e+01 8.4905712715407519e-02 0 0 0
2853 1 1.6997078102882195e+01 1.4219627584284824e+01 2.8642732928548731e+00 0 0 0
2852 1 1.8446439529776370e+01 1.5661047704696205e+01 1.3547246327805824e+00 0 0 0
3303 1 1.9769285726125091e+01 1.4302765703293767e+01 2.9207280771784943e+00 0 0 0
3302 1 2.1142504145351364e+01 1.5655159191299521e+01 1.4081594201530565e+00 0 0 0
3753 1 2.2527796642970845e+01 1.4243584213747182e+01 2.9148159431134659e+00 0 0 0
3752 1 2.4041980539804726e+01 1.5725809426174036e+01 1.4742705291329889e+00 0 0 0
3751 1 2.2595793584056548e+01 1.4158589532866728e+01 4.9395230542358205e-02 0 0 0
4203 1 2.5470116777643245e+01 1.4381915983774771e+01 3.0226334901583165e+00 0 0 0
4202 1 2.6943223436789587e+01 1.5678092035151188e+01 1.5553458189825156e+00 0 0 0
4201 1 2.5592857381108988e+01 1.4229455211285392e+01 1.5589340139669500e-01 0 0 0
4651 1 2.8374381134538531e+01 1.4234804616209363e+01 9.3196970696846390e-02 0 0 0
4653 1 2.8504530384249165e+01 1.4285818389916994e+01 2.8549044211450552e+00 0 0 0
182 1 1.4342878746979266e+00 1.8534693456246767e+01 1.4208734764323117e+00 0 0 0
633 1 2.8809687532741934e+00 1.7055731140707628e+01 2.8585331716981406e+00 0 0 0
631 1 2.9670359679345943e+00 1.7072813086023832e+01 1.4576811627301550e-02 0 0 0
183 1 2.0333743167473908e-01 1.7024251883127057e+01 2.7828696286449950e+00 0 0 0
181 1 1.4988035029155797e-01 1.7096517560651183e+01 4.6531395445452699e-02 0 0 0
632 1 4.2999346620625252e+00 1.8553290242908947e+01 1.4557919903795951e+00 0 0 0
1083 1 5.6935421370259869e+00 1.7035955214186149e+01 2.9010165149004989e+00 0 0 0
1082 1 7.0608419401630620e+00 1.8397217085246901e+01 1.5272260634337171e+00 0 0 0
1533 1 8.5497906452634300e+00 1.7072706037539717e+01 2.7336713381985707e+00 0 0 0
1531 1 8.5888400311068569e+00 1.7078561973156166e+01 7.1949777803865800e-02 0 0 0
1532 1 9.9664934721423233e+00 1.8551234007880424e+01 1.3945161982778516e+00 0 0 0
1983 1 1.1325051113651440e+01 1.7076560282220637e+01 2.8501644939039461e+00 0 0 0
1981 1 1.1380860142892502e+01 1.7067741747492054e+01 8.7064592675429153e-02 0 0 0
1982 1 1.2722696769162930e+01 1.8575714026136662e+01 1.3470483705997269e+00 0 0 0
2433 1 1.4272393710251952e+01 1.7071426175797775e+01 2.7225020598796235e+00 0 0 0
2432 1 1.5523653749100660e+01 1.8520104907786564e+01 1.3831443899586953e+00 0 0 0
2882 1 1.8310174238806773e+01 1.8576950555656385e+01 1.5940628641730328e+00 0 0 0
2883 1 1.7061777234999404e+01 1.7033556255839525e+01 2.9811115337877165e+00 0 0 0
3333 1 1.9766334573961188e+01 1.7029991425725608e+01 2.7801265645405620e+00 0 0 0
3332 1 2.1149632642364839e+01 1.8463417388808324e+01 1.2876964886777524e+00 0 0 0
3782 1 2.4059014257289093e+01 1.8494830292825114e+01 1.3860557337280044e+00 0 0 0
3783 1 2.2571670138535037e+01 1.7088677231359398e+01 2.8218962934781509e+00 0 0 0
4232 1 2.7008054539042348e+01 1.8467600964063518e+01 1.4713067163446805e+00 0 0 0
4233 1 2.5439092759730585e+01 1.7100663254222532e+01 2.8796944370771906e+00 0 0 0
4231 1 2.5560997036494811e+01 1.7137810708697504e+01 1.5038537757546269e-01 0 0 0
4681 1 2.8400596280204976e+01 1.7049270201380910e+01 2.8652038123949102e-03 0 0 0
4683 1 2.8344919201503995e+01 1.7058343592887820e+01 2.8951714217072788e+00 0 0 0
212 1 1.5346124874591429e+00 2.1311850236644137e+01 1.4347273044282054e+00 0 0 0
663 1 2.8042994195899200e+00 1.9916966302416025e+01 2.8777074349561116e+00 0 0 0
693 1 2.9415940406017960e+00 2.2838033482552941e+01 2.8464525346312675e+00 0 0 0
691 1 2.8791484965903735e+00 2.2913331694557453e+01 7.3943008571175695e-02 0 0 0
213 1 1.5502559065872690e-01 1.9908420566150937e+01 2.9908944450724806e+00 0 0 0
243 1 1.2208556180517229e-01 2.2772190164447860e+01 2.9437047715012885e+00 0 0 0
241 1 8.5927125927575787e-02 2.2872434198136073e+01 1.1578528746268903e-01 0 0 0
1113 1 5.6616422330656961e+00 1.9973111151778671e+01 2.7846683018965348e+00 0 0 0
1111 1 5.6417753964009520e+00 2.0040154104636141e+01 9.4787000937599994e-02 0 0 0
662 1 4.2125025678048349e+00 2.1389822767643640e+01 1.3848729225916365e+00 0 0 0
1143 1 5.6624419600643288e+00 2.2729464930255148e+01 2.7316589074217315e+00 0 0 0
1141 1 5.6672535995289630e+00 2.2976314188430329e+01 7.3835239031346589e-02 0 0 0
1563 1 8.5122196660529941e+00 1.9887039805835570e+01 2.9315799577301820e+00 0 0 0
1112 1 7.1303161913639155e+00 2.1339642988032171e+01 1.4673258669024232e+00 0 0 0
1593 1 8.6221081527494210e+00 2.2801812802991872e+01 3.0533441732178157e+00 0 0 0
1561 1 8.5228431931422577e+00 2.0020825979397916e+01 1.2355762160400086e-01 0 0 0
1591 1 8.5223438400815397e+00 2.2814801693288821e+01 1.4244995260540114e-01 0 0 0
1562 1 9.9376588585009191e+00 2.1453607255526766e+01 1.4476501093397043e+00 0 0 0
2013 1 1.1360350548209295e+01 1.9933077717966135e+01 2.7779501020313662e+00 0 0 0
2043 1 1.1288876850827950e+01 2.2923968034810080e+01 2.9277774667069214e+00 0 0 0
2041 1 1.1348535194282173e+01 2.2817917467835091e+01 4.1605147327246635e-02 0 0 0
2012 1 1.2720509961478232e+01 2.1356653741843822e+01 1.4481581404256498e+00 0 0 0
2463 1 1.4158283840898015e+01 1.9885084557106300e+01 2.8699522766466274e+00 0 0 0
2493 1 1.4086770781795297e+01 2.2815376492888735e+01 2.6707260649586591e+00 0 0 0
2462 1 1.5466389109567663e+01 2.1478794363676126e+01 1.4620677179473025e+00 0 0 0
2491 1 1.4092328385543507e+01 2.2769419236452119e+01 2.0425045502996397e-02 0 0 0
2912 1 1.8402689795692005e+01 2.1368610726232820e+01 1.3712102077258908e+00 0 0 0
2913 1 1.7017052841638080e+01 2.0020538160372919e+01 2.8631751571189867e+00 0 0 0
2943 1 1.7033555913061161e+01 2.2727422291946400e+01 2.9269360581907069e+00 0 0 0
2941 1 1.6835843220494503e+01 2.2666247216654533e+01 2.3834322971198453e-02 0 0 0
2911 1 1.7034405978099254e+01 1.9964178585157200e+01 6.4486742230159877e-02 0 0 0
3363 1 1.9748437540651359e+01 1.9976460896840315e+01 2.8196146069912000e+00 0 0 0
3362 1 2.1167181779135205e+01 2.1321230123933002e+01 1.3365199146789826e+00 0 0 0
3393 1 1.9817086544921491e+01 2.2846081007576689e+01 2.6739403527283878e+00 0 0 0
3812 1 2.3997884393229498e+01 2.1327413450315838e+01 1.3792616372833379e+00 0 0 0
3813 1 2.2439146052471717e+01 1.9844643791881914e+01 2.8169311533972570e+00 0 0 0
3843 1 2.2666126245926186e+01 2.2793007141578162e+01 2.8437181285553921e+00 0 0 0
4263 1 2.5537825509411711e+01 1.9914609912546368e+01 2.8126903100867944e+00 0 0 0
4262 1 2.6814893808848133e+01 2.1404422168542521e+01 1.4201941208964184e+00 0 0 0
4293 1 2.5395932036185673e+01 2.2936131129004931e+01 2.8757927848354981e+00 0 0 0
4741 1 2.8385599481929166e+01 2.2829116151214560e+01 1.3806063638516787e-02 0 0 0
4261 1 2.5557352496855057e+01 1.9978518940393474e+01 1.5398112564926901e-02 0 0 0
4743 1 2.8387201050490834e+01 2.2835789203038185e+01 2.7374654068821567e+00 0 0 0
4713 1 2.8250185324773156e+01 2.0026639631934305e+01 2.8690263391709485e+00 0 0 0
242 1 1.4597407561866960e+00 2.4215018105508808e+01 1.4907437447243592e+00 0 0 0
723 1 2.9300004435622564e+00 2.5783820404642828e+01 2.8688314307612086e+00 0 0 0
721 1 2.8902397445673111e+00 2.5749433646149871e+01 1.2910306799483751e-01 0 0 0
271 1 7.0258463248270200e-03 2.5699337281660657e+01 5.8533513980045790e-02 0 0 0
273 1 4.7196212794859263e-02 2.5682023639161947e+01 2.8565838598513391e+00 0 0 0
692 1 4.3114329657616581e+00 2.4348776774955692e+01 1.4935324066680298e+00 0 0 0
1173 1 5.7031689839257629e+00 2.5655586198394715e+01 2.8598989642893802e+00 0 0 0
1171 1 5.7520089638482093e+00 2.5700333411230620e+01 8.8136331596211759e-02 0 0 0
1142 1 7.1637242782768009e+00 2.4185938373922898e+01 1.4762145798684849e+00 0 0 0
1623 1 8.4538173446160023e+00 2.5553693646853894e+01 2.9535382656961997e+00 0 0 0
1621 1 8.5358569719053090e+00 2.5654638541178855e+01 9.8269201803686548e-02 0 0 0
1592 1 9.9686189450446854e+00 2.4287512541626409e+01 1.4699574571041198e+00 0 0 0
2073 1 1.1307292101943569e+01 2.5598788118414838e+01 2.8400278074363117e+00 0 0 0
2042 1 1.2726874224009537e+01 2.4372504003792578e+01 1.5803597967061229e+00 0 0 0
2523 1 1.4137273640739158e+01 2.5626186461171407e+01 2.8711756210214485e+00 0 0 0
2492 1 1.5708038614073454e+01 2.4289772266916071e+01 1.4307546598687162e+00 0 0 0
2521 1 1.4144104201710716e+01 2.5572320148453741e+01 2.4440310222792991e-01 0 0 0
2942 1 1.8344345814529952e+01 2.4194711438214195e+01 1.3190662825906456e+00 0 0 0
2973 1 1.6907871390096613e+01 2.5609679620441472e+01 2.8707973512965848e+00 0 0 0
2971 1 1.6835323615887862e+01 2.5867931384015240e+01 3.1942650158284555e-02 0 0 0
3423 1 1.9771121797608771e+01 2.5673135796587079e+01 2.8672300841410485e+00 0 0 0
3392 1 2.1302723926065642e+01 2.4178493459342857e+01 1.3573157321732865e+00 0 0 0
3421 1 1.9825746236311133e+01 2.5759348730526632e+01 1.2561632137664733e-01 0 0 0
3842 1 2.4137472079351991e+01 2.4337425599271924e+01 1.3935948018826907e+00 0 0 0
3873 1 2.2755267296518532e+01 2.5575330053985269e+01 2.9194632267782632e+00 0 0 0
3871 1 2.2675841675976596e+01 2.5660473624118783e+01 2.1806523225995689e-02 0 0 0
4292 1 2.6999029744459637e+01 2.4364953647045361e+01 1.4888546421075601e+00 0 0 0
4323 1 2.5634982012195206e+01 2.5653091172186649e+01 2.8572581428359936e+00 0 0 0
4773 1 2.8459228037458647e+01 2.5744012449369283e+01 2.7747318856146865e+00 0 0 0
4321 1 2.5576630999541159e+01 2.5917240087141014e+01 4.9669059785095596e-03 0 0 0
4771 1 2.8432412013670309e+01 2.5776742440360827e+01 5.4563642821534586e-02 0 0 0
272 1 1.4258432663735963e+00 2.7076911385039168e+01 1.4728709438858438e+00 0 0 0
753 1 2.9587980046234819e+00 2.8571461089073093e+01 2.8648604672486560e+00 0 0 0
301 1 8.1591213231738555e-02 2.8419363035353033e+01 6.8935925577980658e-02 0 0 0
722 1 4.3532479967073332e+00 2.7166502595175245e+01 1.3395741047045184e+00 0 0 0
1203 1 5.7511194940412631e+00 2.8562099185767252e+01 2.8619247640094052e+00 0 0 0
1201 1 5.7326434461624975e+00 2.8421284549520959e+01 8.7869097319689615e-02 0 0 0
1172 1 7.2108951025573633e+00 2.7024186753272083e+01 1.5716354691331280e+00 0 0 0
1653 1 8.4007173366375554e+00 2.8440085390744798e+01 2.9511961943622320e+00 0 0 0
1622 1 1.0009961851798483e+01 2.7033968759097665e+01 1.5522796491534552e+00 0 0 0
2103 1 1.1363510959526828e+01 2.8340494884805629e+01 2.8815162602415598e+00 0 0 0
2072 1 1.2641375583078906e+01 2.7062028961507586e+01 1.3963700896104321e+00 0 0 0
2553 1 1.4047061987624701e+01 2.8469954735049058e+01 2.9871357165643855e+00 0 0 0
2522 1 1.5504495111703383e+01 2.7182089078147651e+01 1.4345681928843295e+00 0 0 0
2551 1 1.4214862092917471e+01 2.8578540919358851e+01 9.3866666047225225e-02 0 0 0
2972 1 1.8375969711475882e+01 2.7155964716616975e+01 1.5259508899748955e+00 0 0 0
3003 1 1.6988973944923220e+01 2.8498808270346874e+01 2.8933455227319413e+00 0 0 0
3001 1 1.6993592888108100e+01 2.8493914011582522e+01 5.7226262246878434e-02 0 0 0
3422 1 2.1231036116987138e+01 2.7130297441442046e+01 1.4667474107393879e+00 0 0 0
3453 1 1.9883382037325923e+01 2.8573455998141323e+01 2.8402363025199864e+00 0 0 0
3451 1 1.9734095016450144e+01 2.8539415830150979e+01 9.9964309897409009e-02 0 0 0
3872 1 2.4028242217520404e+01 2.7049484908572868e+01 1.4316446762774875e+00 0 0 0
3903 1 2.2604529463266587e+01 2.8433313647043544e+01 2.8238347019836096e+00 0 0 0
3901 1 2.2711271167033694e+01 2.8499564531434984e+01 2.9010572204195752e-03 0 0 0
4353 1 2.5656724872695772e+01 2.8591281378698682e+01 2.6384081377642783e+00 0 0 0
4322 1 2.7052574532784160e+01 2.7136612634592716e+01 1.3336597058040782e+00 0 0 0
4351 1 2.5549643878808393e+01 2.8512270271905546e+01 1.0237617589077080e-02 0 0 0
302 1 1.4816714475490247e+00 2.9876353043471706e+01 1.4041976545825539e+00 0 0 0
783 1 2.8190491722967446e+00 3.1380631358912030e+01 2.7146353464613417e+00 0 0 0
781 1 2.6212257845329465e+00 3.1316097308003112e+01 1.1220947935086656e-03 0 0 0
332 1 1.4190804333414073e+00 3.2762883870655941e+01 1.4817524919103318e+00 0 0 0
333 1 4.1881028227157578e-02 3.1180412608534084e+01 2.8090000990309445e+00 0 0 0
752 1 4.2744232206729276e+00 2.9959209439264431e+01 1.4450119588315313e+00 0 0 0
1233 1 5.5186345784427466e+00 3.1466281746917616e+01 2.8207351532352978e+00 0 0 0
782 1 4.2083251026462261e+00 3.2864158314849732e+01 1.4575805873591243e+00 0 0 0
1231 1 5.6881620323497923e+00 3.1263106282089399e+01 1.1934052869549917e-01 0 0 0
1202 1 7.1002639170120139e+00 2.9930032287350151e+01 1.4042717052795928e+00 0 0 0
1683 1 8.5661458410874225e+00 3.1337223686894486e+01 2.8518084029712498e+00 0 0 0
1232 1 7.1118555318252188e+00 3.2654501380138285e+01 1.4834137295794765e+00 0 0 0
1681 1 8.4752435434985909e+00 3.1263341592345082e+01 8.8588911149303895e-02 0 0 0
1652 1 9.9981448793591987e+00 2.9925245496275743e+01 1.4626120708888251e+00 0 0 0
2133 1 1.1320072522164137e+01 3.1274359747091147e+01 2.8566468553039801e+00 0 0 0
1682 1 9.8592236617492812e+00 3.2746036353803575e+01 1.4201643250387879e+00 0 0 0
2131 1 1.1265312693451527e+01 3.1377062933787933e+01 7.0843886941673873e-04 0 0 0
2102 1 1.2787743226980128e+01 3.0045543647239029e+01 1.3700694686867254e+00 0 0 0
2583 1 1.4127189665315136e+01 3.1354957454783939e+01 2.9178318554532390e+00 0 0 0
2552 1 1.5557627626274414e+01 2.9823235173611184e+01 1.5084453403468971e+00 0 0 0
2132 1 1.2784345778393803e+01 3.2727935508712775e+01 1.4590755415038150e+00 0 0 0
2581 1 1.4150703106426082e+01 3.1402336272610011e+01 3.7011743837922495e-04 0 0 0
2582 1 1.5528182063743852e+01 3.2741285886380368e+01 1.4113991569053685e+00 0 0 0
3002 1 1.8348435975768851e+01 2.9903785998840842e+01 1.4208872261755281e+00 0 0 0
3033 1 1.6877699065371655e+01 3.1344283034243226e+01 2.9063945398712479e+00 0 0 0
3032 1 1.8468196652586613e+01 3.2743322020143580e+01 1.4946872961093869e+00 0 0 0
3031 1 1.6849558626231925e+01 3.1239952429265962e+01 6.8081268532703201e-02 0 0 0
3452 1 2.1277260320551903e+01 2.9917380136582789e+01 1.2911855098668132e+00 0 0 0
3483 1 1.9870554189580808e+01 3.1282452276554210e+01 2.8259996972200292e+00 0 0 0
3482 1 2.1256171488784883e+01 3.2754550136360990e+01 1.4729284367238429e+00 0 0 0
3481 1 1.9909752992127320e+01 3.1312328895136879e+01 1.3295684682111641e-01 0 0 0
3902 1 2.4238795775627885e+01 2.9965946612717474e+01 1.3547682991519481e+00 0 0 0
3933 1 2.2703186964464503e+01 3.1342843074180660e+01 2.6436004652939245e+00 0 0 0
3932 1 2.4282522216727884e+01 3.2793551799160184e+01 1.3594155731821469e+00 0 0 0
4352 1 2.7102049837803595e+01 3.0103271875197180e+01 1.4548973498732731e+00 0 0 0
4383 1 2.5596576308669700e+01 3.1301687805858265e+01 3.0148294191861171e+00 0 0 0
4382 1 2.6949106071570050e+01 3.2742235261613118e+01 1.4864659125550834e+00 0 0 0
4833 1 2.8418203628508262e+01 3.1330047628226684e+01 2.9233688470047658e+00 0 0 0
813 1 2.8151126573890037e+00 3.4176253841615392e+01 2.9507250008824366e+00 0 0 0
362 1 1.3320845315033989e+00 3.5598548366999225e+01 1.5993709300496335e+00 0 0 0
811 1 2.8285489091794029e+00 3.4185789579327306e+01 7.1675018962833265e-02 0 0 0
1263 1 5.6048592145310883e+00 3.4134392077342525e+01 2.8823402276851953e+00 0 0 0
812 1 4.3450779421738472e+00 3.5618053673654543e+01 1.4407245381573726e+00 0 0 0
1261 1 5.6834262169431407e+00 3.4057000797026774e+01 5.4875305529606067e-02 0 0 0
1713 1 8.4779405142831656e+00 3.4077504954503624e+01 2.8585868262282470e+00 0 0 0
1262 1 6.9803258591304473e+00 3.5523548351982740e+01 1.5039028138477979e+00 0 0 0
1711 1 8.5507012838736465e+00 3.4158338033644441e+01 1.0250494612526456e-03 0 0 0
2163 1 1.1330663034530955e+01 3.4127452951311639e+01 2.7766574130339792e+00 0 0 0
1712 1 9.9010068944096314e+00 3.5483507993704052e+01 1.3761127247353389e+00 0 0 0
2162 1 1.2682624699920002e+01 3.5519432855094763e+01 1.4953602268131865e+00 0 0 0
2613 1 1.4259359773544610e+01 3.4125238334525122e+01 3.0144918747362062e+00 0 0 0
2612 1 1.5600554619756597e+01 3.5663497062120115e+01 1.4053534859029813e+00 0 0 0
3063 1 1.6997103878868877e+01 3.4156371612009394e+01 2.9261628255233845e+00 0 0 0
3062 1 1.8422551086682880e+01 3.5707449999916790e+01 1.3548507868438060e+00 0 0 0
3061 1 1.7026233886683464e+01 3.4065927644396339e+01 2.0186566412961937e-01 0 0 0
3513 1 1.9730882748023593e+01 3.4156435437454704e+01 2.9006222416989673e+00 0 0 0
3512 1 2.1530395972981950e+01 3.5248316521546030e+01 1.5755139245234409e+00 0 0 0
3511 1 1.9764610389952885e+01 3.4237296287577266e+01 1.2447026715817952e-02 0 0 0
3963 1 2.2846768793872251e+01 3.4058484122768334e+01 2.9595291924088509e+00 0 0 0
3962 1 2.4385207617782360e+01 3.5720685222407198e+01 1.5072214115819931e+00 0 0 0
4413 1 2.5497717630182123e+01 3.4158209109662636e+01 3.0199716579230014e+00 0 0 0
4412 1 2.6976498741899778e+01 3.5569445948498554e+01 1.3924210987598395e+00 0 0 0
4411 1 2.5469122762929672e+01 3.4227839360271489e+01 3.3746702081817216e-02 0 0 0
4863 1 2.8463008136260477e+01 3.4188313744343986e+01 2.8228083632270140e+00 0 0 0
392 1 1.7015978161201548e+00 3.8465682010832921e+01 1.4908035266462276e+00 0 0 0
843 1 2.9557598630657571e+00 3.7008717236198933e+01 2.7529468637059922e+00 0 0 0
391 1 1.7120091020644146e-01 3.7121245237306866e+01 1.1704991682175633e-01 0 0 0
842 1 4.5590964228279871e+00 3.8430006007563009e+01 1.4926193735528654e+00 0 0 0
1293 1 5.8123288412954572e+00 3.6878817863548150e+01 2.8587938170168474e+00 0 0 0
1291 1 5.7769106343128405e+00 3.7035560755377503e+01 8.0619823254762801e-03 0 0 0
1292 1 7.1646797704940335e+00 3.8508964661496506e+01 1.5355575417935690e+00 0 0 0
1743 1 8.5241023821661042e+00 3.7055226000532571e+01 2.8047205860459292e+00 0 0 0
1741 1 8.5221255086778651e+00 3.6928414860620734e+01 4.2208072994441070e-02 0 0 0
1742 1 9.8712025440634257e+00 3.8363913051415068e+01 1.3868313701669233e+00 0 0 0
2193 1 1.1370812707062859e+01 3.7106614632888594e+01 2.7345958655066513e+00 0 0 0
2192 1 1.2667452644738525e+01 3.8541635233189240e+01 1.3975809075952319e+00 0 0 0
2642 1 1.5645344271249728e+01 3.8441754278976120e+01 1.4853538156508062e+00 0 0 0
2643 1 1.4195260756336605e+01 3.7037649613868524e+01 2.9080488304159036e+00 0 0 0
2641 1 1.4061265836896812e+01 3.7091438001806850e+01 7.7242310860654584e-03 0 0 0
3092 1 1.8525640972745872e+01 3.8533265441174336e+01 1.5524457315740388e+00 0 0 0
3093 1 1.7016738237605960e+01 3.7012211621167808e+01 2.7293140929525639e+00 0 0 0
3543 1 1.9896792879916863e+01 3.7174466460825883e+01 2.8783657799213147e+00 0 0 0