LAMMPS data file via write_data, version 7 Aug 2019, timestep = 28000

9000 atoms
1 atom types

-1.2454929418246455e-04 5.7106124549294186e+01 xlo xhi
-9.3411970636848420e-05 4.2829593411970642e+01 ylo yhi
-9.3411970636848420e-05 4.2829593411970642e+01 zlo zhi

Masses

1 56

Atoms # atomic

2 1 1.4418402141560285e+00 1.3949307557193140e+00 1.4320450069392807e+00 0 0 0
483 1 2.9073203550782436e+00 2.8567221308195503e+00 2.9189358645350718e+00 0 0 0
453 1 2.9645929215727915e+00 6.7596359054278771e-02 2.8636104765281720e+00 0 0 0
33 1 1.6130629909806166e-01 2.8747210319370970e+00 2.8331852461123002e+00 0 0 0
452 1 4.3345604738340890e+00 1.4580704253539565e+00 1.4010938300454108e+00 0 0 0
933 1 5.7110970426787553e+00 2.8697493500263938e+00 2.9961954011302270e+00 0 0 0
903 1 5.8614445989025201e+00 4.3333690223047117e-02 2.9476109623139006e+00 0 0 0
931 1 5.7144595713619655e+00 2.9025721924319599e+00 6.4413622482963978e-02 0 0 0
902 1 7.1360713921048440e+00 1.3910959428717282e+00 1.4381642603565667e+00 0 0 0
1383 1 8.5290401961026650e+00 2.8227144370941191e+00 2.8293789501344975e+00 0 0 0
1353 1 8.6337462761981723e+00 6.4298017772381422e-02 2.9911296462142385e+00 0 0 0
1381 1 8.5462418379150211e+00 2.8720811187194539e+00 1.7295146501581168e-01 0 0 0
1352 1 9.9045317370359367e+00 1.3458413266086271e+00 1.3699238442302781e+00 0 0 0
1833 1 1.1382932097123220e+01 2.9436870845806382e+00 2.9072116634594058e+00 0 0 0
1802 1 1.2662065308880466e+01 1.3503056761611607e+00 1.4494953135341762e+00 0 0 0
1801 1 1.1481594336788811e+01 1.3737709608436382e-02 3.8130690461877684e-02 0 0 0
1831 1 1.1333236443017446e+01 2.7206393330609435e+00 7.5537650342944893e-02 0 0 0
2283 1 1.4127048316231162e+01 2.9304701602700010e+00 2.8215169133387805e+00 0 0 0
2252 1 1.5552413658211981e+01 1.5031511516319638e+00 1.4917852814833255e+00 0 0 0
2253 1 1.4129249180769740e+01 1.3475521611462954e-01 2.9067562769745767e+00 0 0 0
2281 1 1.4167698434212081e+01 2.8814706993652988e+00 8.5109705912875505e-02 0 0 0
2251 1 1.4242764314004750e+01 4.3011980445439919e-02 3.6131080267111919e-02 0 0 0
2702 1 1.8460145535320450e+01 1.4135479789549719e+00 1.4780979744956058e+00 0 0 0
2733 1 1.6939886464134947e+01 2.7776953340932007e+00 2.9015669512572484e+00 0 0 0
2703 1 1.6977473052359795e+01 8.2602323309889508e-02 2.8681478910735394e+00 0 0 0
2701 1 1.7061008810965387e+01 1.6750104244313543e-01 6.6916472165379798e-02 0 0 0
2731 1 1.7115322064928890e+01 2.8759336844276810e+00 5.7192484568714036e-02 0 0 0
3183 1 1.9869170943824145e+01 2.8611953382011341e+00 2.9480574102567036e+00 0 0 0
3152 1 2.1356180681505808e+01 1.6244253240783391e+00 1.4264603265413593e+00 0 0 0
3153 1 1.9916520976913990e+01 9.5495993041681937e-02 2.8867286477532823e+00 0 0 0
3151 1 1.9926399282966109e+01 3.0141681692627063e-02 8.6745815659596825e-02 0 0 0
3602 1 2.4167412570122927e+01 1.4328824149110484e+00 1.3680787341278793e+00 0 0 0
3633 1 2.2736069563773171e+01 2.8517161215715170e+00 2.9836166193684690e+00 0 0 0
3603 1 2.2860488714276361e+01 1.8102168764890408e-01 2.8768309010760338e+00 0 0 0
3601 1 2.2690784195462019e+01 9.6689885244277858e-03 9.9783174998179638e-02 0 0 0
4052 1 2.7121792110964680e+01 1.3672456218977647e+00 1.4488554444513226e+00 0 0 0
4083 1 2.5565943032912131e+01 2.8453885576385320e+00 2.7416258807694298e+00 0 0 0
4053 1 2.5651638431306051e+01 1.9609621259035245e-02 2.7734578656527962e+00 0 0 0
4081 1 2.5735385416242885e+01 2.9118916014465319e+00 3.2217991890127584e-02 0 0 0
32 1 1.5374161523522076e+00 4.1720041781368584e+00 1.4351915724382209e+00 0 0 0
513 1 2.9127115406519501e+00 5.7221228448638319e+00 2.9616121034619778e+00 0 0 0
511 1 2.8784181829864606e+00 5.7819993456442704e+00 2.0960521728470288e-01 0 0 0
61 1 1.7492968761302510e-01 5.7590904516172055e+00 1.4181707358553583e-01 0 0 0
63 1 4.5495531606407139e-02 5.7971403583767849e+00 2.9736218475783995e+00 0 0 0
482 1 4.2854962226173363e+00 4.2274294587851502e+00 1.5168286527588835e+00 0 0 0
963 1 5.7314859064430124e+00 5.7404547734750331e+00 2.9334644589396768e+00 0 0 0
961 1 5.7264706160892107e+00 5.7603252294360754e+00 9.3397360415908737e-02 0 0 0
932 1 7.1300431494185847e+00 4.3345171508002940e+00 1.4391279838837105e+00 0 0 0
1413 1 8.7473491362604889e+00 5.7500744230627365e+00 2.9606154026858218e+00 0 0 0
1411 1 8.7194496685762424e+00 5.7762338869934133e+00 7.3709563428933686e-02 0 0 0
1382 1 1.0091872885328048e+01 4.3488459655122886e+00 1.5131953642479035e+00 0 0 0
1863 1 1.1396902162282457e+01 5.7664451116284612e+00 2.9776125799693807e+00 0 0 0
1861 1 1.1371407083733674e+01 5.8093407116343974e+00 1.8572989630491171e-01 0 0 0
1832 1 1.2872111116132977e+01 4.3096650554439817e+00 1.5009087936046042e+00 0 0 0
2313 1 1.4310835487867303e+01 5.7035257318011698e+00 2.8750824588419248e+00 0 0 0
2282 1 1.5637195515823962e+01 4.4105324523885621e+00 1.3902200649236749e+00 0 0 0
2311 1 1.4131019299087434e+01 5.7622922539360779e+00 9.1653540080736770e-02 0 0 0
2732 1 1.8512808667820387e+01 4.2520358037861037e+00 1.4420661867457358e+00 0 0 0
2763 1 1.7062103115621760e+01 5.7494505436229595e+00 2.7513615989175122e+00 0 0 0
3213 1 1.9930672909796041e+01 5.7009085178776076e+00 2.8178611697818878e+00 0 0 0
3182 1 2.1306006019895516e+01 4.1738276283665039e+00 1.3913614593394044e+00 0 0 0
3632 1 2.4115233978195107e+01 4.3866375292669986e+00 1.4917729336304579e+00 0 0 0
3663 1 2.2628664166563610e+01 5.6846655079232082e+00 2.7816498846806264e+00 0 0 0
4082 1 2.7181852822531674e+01 4.3480322185094922e+00 1.4481788611065516e+00 0 0 0
4113 1 2.5642592267843845e+01 5.7924017219055557e+00 2.8494324374818536e+00 0 0 0
4111 1 2.5534713204438894e+01 5.6400632383699980e+00 5.2612536178095998e-02 0 0 0
62 1 1.4367635581829192e+00 7.1446742957408267e+00 1.5903440238560340e+00 0 0 0
543 1 3.0104322399744423e+00 8.5683461330614321e+00 2.9799842527603229e+00 0 0 0
93 1 3.4995918930840350e-02 8.5465085796650886e+00 2.9653376237395865e+00 0 0 0
91 1 5.9884524503586722e-02 8.5650148093881189e+00 3.7988039588542216e-02 0 0 0
512 1 4.2333467009199071e+00 7.1901335606703771e+00 1.6052511386355950e+00 0 0 0
993 1 5.8717565223725048e+00 8.4140885440156623e+00 3.0485685242423148e+00 0 0 0
991 1 5.6334936118128525e+00 8.4457835543782149e+00 4.6839586846801236e-02 0 0 0
962 1 7.1185208176093777e+00 7.1318878930990186e+00 1.4139207646371710e+00 0 0 0
1443 1 8.4869866992686340e+00 8.6598477754578838e+00 2.7895235140457970e+00 0 0 0
1441 1 8.6943078044119346e+00 8.5631768110546886e+00 4.7528460893603991e-02 0 0 0
1412 1 1.0106050752490072e+01 7.2643958774828707e+00 1.5785054751036092e+00 0 0 0
1893 1 1.1436588590144108e+01 8.5232585097196587e+00 2.9808296278615036e+00 0 0 0
1891 1 1.1424344113745665e+01 8.4362949898464894e+00 5.3260972495105037e-02 0 0 0
1862 1 1.2835364818170712e+01 7.1063050478910021e+00 1.7838039724494652e+00 0 0 0
2343 1 1.4279141735006840e+01 8.5720309445695637e+00 2.9003330503753384e+00 0 0 0
2312 1 1.5648341715138949e+01 7.1788787671222734e+00 1.3311714017337473e+00 0 0 0
2342 1 1.5639620732216665e+01 9.8719275137762512e+00 1.4102123656875734e+00 0 0 0
2762 1 1.8515780912955456e+01 7.0205061331087393e+00 1.3116941882691218e+00 0 0 0
2793 1 1.7060672095824447e+01 8.4955188278218969e+00 2.9326693858025217e+00 0 0 0
2792 1 1.8558863469326830e+01 9.8044550360160923e+00 1.5383172529702032e+00 0 0 0
3212 1 2.1140488548368122e+01 7.0403276463068920e+00 1.3702365338439950e+00 0 0 0
3243 1 1.9947024048472951e+01 8.5795585323252244e+00 3.0339867966407121e+00 0 0 0
3662 1 2.4115084427323204e+01 7.2234143022617721e+00 1.3946664476720012e+00 0 0 0
3693 1 2.2673513692656389e+01 8.4607896608961628e+00 2.7780272438932898e+00 0 0 0
3691 1 2.2806614985926494e+01 8.5244567495876993e+00 2.7321940664913315e-02 0 0 0
4112 1 2.7132478574159517e+01 7.1956183560640001e+00 1.4114437348274043e+00 0 0 0
4143 1 2.5679928208557808e+01 8.5810660909391796e+00 2.8968841539472501e+00 0 0 0
4141 1 2.5626218692615961e+01 8.5115164031134540e+00 6.0049216208589509e-02 0 0 0
92 1 1.4427050047560739e+00 1.0032792305627840e+01 1.4745476222357259e+00 0 0 0
573 1 2.9244666554003387e+00 1.1285604466543930e+01 2.8895392676753668e+00 0 0 0
122 1 1.5436088817696345e+00 1.2846630168794865e+01 1.4141148399119412e+00 0 0 0
123 1 9.4839979519211165e-02 1.1456550032877352e+01 2.8338168813132367e+00 0 0 0
542 1 4.3112806242610748e+00 9.8904087721837026e+00 1.4885792904782069e+00 0 0 0
1023 1 5.4948085034941050e+00 1.1248773593050313e+01 2.8640347911310133e+00 0 0 0
572 1 4.2347946402366148e+00 1.2666337014764371e+01 1.4441266991065613e+00 0 0 0
1021 1 5.6839339076650566e+00 1.1230888551994378e+01 4.8526550776176545e-03 0 0 0
992 1 7.0284511832002083e+00 9.9424119646617193e+00 1.4418025300093815e+00 0 0 0
1473 1 8.5620731836189599e+00 1.1423250643393933e+01 2.7496397349733011e+00 0 0 0
1022 1 6.9695244334966819e+00 1.2802201025520434e+01 1.3436129138618718e+00 0 0 0
1471 1 8.4416744664704719e+00 1.1398826646791333e+01 1.0397224848602933e-02 0 0 0
1442 1 9.9420466544537316e+00 1.0034185917682061e+01 1.5678959882413324e+00 0 0 0
1923 1 1.1540940611980766e+01 1.1321863617073468e+01 2.8207632757303176e+00 0 0 0
1472 1 1.0126800308484366e+01 1.2704978124497817e+01 1.4113174128566974e+00 0 0 0
1921 1 1.1422595112022265e+01 1.1277608229691912e+01 1.0335445782188567e-01 0 0 0
1892 1 1.2826744103642557e+01 9.8984213015858309e+00 1.5870636860321308e+00 0 0 0
1922 1 1.2762425125488258e+01 1.2749136166331441e+01 1.2403559118888230e+00 0 0 0
2373 1 1.4124279321073303e+01 1.1398622129004773e+01 2.7713144705790902e+00 0 0 0
2372 1 1.5478621301475339e+01 1.2748582615649797e+01 1.4668811941882289e+00 0 0 0
2823 1 1.6999800291986279e+01 1.1289802301155312e+01 2.7500547524993810e+00 0 0 0
2822 1 1.8455506867102329e+01 1.2852597349974971e+01 1.3910668268193771e+00 0 0 0
3242 1 2.1364739200857699e+01 9.9217819422561302e+00 1.4773968200814376e+00 0 0 0
3272 1 2.1316232167448820e+01 1.2689470127097334e+01 1.2484733187195263e+00 0 0 0
3273 1 1.9787342269667729e+01 1.1306815774096362e+01 2.7619316700205254e+00 0 0 0
3271 1 1.9753815643917413e+01 1.1297406235052126e+01 2.1812496954607193e-02 0 0 0
3692 1 2.4187175964408063e+01 9.9149359100046244e+00 1.4749643411798585e+00 0 0 0
3723 1 2.2732952407192546e+01 1.1372316328528781e+01 2.8938197618526740e+00 0 0 0
3722 1 2.4163476795468966e+01 1.2812068968274836e+01 1.3611782734248687e+00 0 0 0
4142 1 2.7118753594616830e+01 9.9542646092152669e+00 1.5022397574566111e+00 0 0 0
4173 1 2.5697605878514551e+01 1.1384113871940624e+01 2.9035145535425699e+00 0 0 0
4172 1 2.6960753882386506e+01 1.2837347995298410e+01 1.4401289782484790e+00 0 0 0
4171 1 2.5561166243192357e+01 1.1319456444218826e+01 9.0328708684083853e-02 0 0 0
603 1 2.9489185857216298e+00 1.4022891992449093e+01 2.8618442580189587e+00 0 0 0
152 1 1.4633376332052050e+00 1.5666840443483167e+01 1.4456807509602367e+00 0 0 0
153 1 9.2833799930710809e-02 1.4160180630489315e+01 2.9202587925179420e+00 0 0 0
1053 1 5.6044731376953827e+00 1.4107305247366007e+01 2.8699332767982564e+00 0 0 0
602 1 4.2618718259928636e+00 1.5577016345433757e+01 1.4965823438076400e+00 0 0 0
1051 1 5.6895370131034229e+00 1.4191315586743370e+01 2.1515397863834853e-02 0 0 0
1503 1 8.6409256546713848e+00 1.4127584958264711e+01 2.8714084516804514e+00 0 0 0
1052 1 7.1943710590466994e+00 1.5629447548593372e+01 1.3681559093554798e+00 0 0 0
1501 1 8.6156259968163873e+00 1.4048443194818431e+01 1.1791355801175368e-01 0 0 0
1953 1 1.1475400419976987e+01 1.4301599734210251e+01 2.7105561971940926e+00 0 0 0
1502 1 9.9326181477556936e+00 1.5605953020480673e+01 1.3834799817903525e+00 0 0 0
1952 1 1.2767805581068625e+01 1.5687416954851335e+01 1.2722949052889703e+00 0 0 0
2403 1 1.4239050329772846e+01 1.4223840246462471e+01 2.8838634922654509e+00 0 0 0
2402 1 1.5540565469494320e+01 1.5740845886496569e+01 1.4553947870149504e+00 0 0 0
2401 1 1.4225564699195509e+01 1.4223532973094931e+01 6.8820827345172406e-02 0 0 0
2853 1 1.7098887285919883e+01 1.4140340551004948e+01 2.8132655480455773e+00 0 0 0
2852 1 1.8401774351677609e+01 1.5654351942295982e+01 1.4795101270722846e+00 0 0 0
2851 1 1.6928332137849367e+01 1.4326618871920498e+01 1.3793948179650234e-01 0 0 0
3303 1 1.9964714626304378e+01 1.4211022211325902e+01 2.7250271927523095e+00 0 0 0
3302 1 2.1273569857854046e+01 1.5644343174913077e+01 1.3989781751728727e+00 0 0 0
3753 1 2.2650382080756323e+01 1.4113548257948022e+01 2.9461922350141982e+00 0 0 0
3752 1 2.4149630609230851e+01 1.5578008704330008e+01 1.4314745413835162e+00 0 0 0
3751 1 2.2596737173680829e+01 1.4125408273531299e+01 1.2255663492135057e-02 0 0 0
4203 1 2.5489706489823675e+01 1.4238267100384185e+01 2.7462904417583229e+00 0 0 0
4202 1 2.6910052058797650e+01 1.5518370956179373e+01 1.3914433538705175e+00 0 0 0
4653 1 2.8439694547975130e+01 1.4226159938906928e+01 2.8491251288034345e+00 0 0 0
182 1 1.4732084914587298e+00 1.8571383368086614e+01 1.5010477035858076e+00 0 0 0
633 1 2.8838812465550618e+00 1.7027559412038478e+01 2.8439434524314287e+00 0 0 0
183 1 3.5363256455934369e-02 1.6940129777068538e+01 2.8196773394526704e+00 0 0 0
632 1 4.3020919870619707e+00 1.8541051642201637e+01 1.2884832461730678e+00 0 0 0
1083 1 5.5734596445124369e+00 1.7100605283947040e+01 2.7573017729660156e+00 0 0 0
1082 1 7.0406781667077309e+00 1.8469403748967355e+01 1.3468209710492094e+00 0 0 0
1533 1 8.4166499340212688e+00 1.7048315268476568e+01 2.7092454531602659e+00 0 0 0
1532 1 9.8118043272402602e+00 1.8411659535506768e+01 1.2727549231911195e+00 0 0 0
1983 1 1.1318223553989808e+01 1.7013089959461634e+01 2.7756810392823170e+00 0 0 0
1981 1 1.1290803525532588e+01 1.7101671503501255e+01 2.8919399869034964e-02 0 0 0
1982 1 1.2821048611593017e+01 1.8422085849247626e+01 1.3674493700285755e+00 0 0 0
2433 1 1.4092910502916130e+01 1.7182909438370107e+01 2.8450310687129012e+00 0 0 0
2432 1 1.5562510609084748e+01 1.8459106204516203e+01 1.4388265520067478e+00 0 0 0
2431 1 1.4217556619782968e+01 1.7063642764371064e+01 9.6801815508907638e-02 0 0 0
2882 1 1.8354557170572647e+01 1.8428471154450712e+01 1.5034228293642518e+00 0 0 0
2883 1 1.6976499812717851e+01 1.7083820287557344e+01 2.9671664361126884e+00 0 0 0
3333 1 1.9878087868580764e+01 1.7071878648598460e+01 2.8543935498758026e+00 0 0 0
3332 1 2.1194336312401102e+01 1.8488348682796360e+01 1.5009370927935946e+00 0 0 0
3782 1 2.4150969457931311e+01 1.8310662582239754e+01 1.3760809554448443e+00 0 0 0
3783 1 2.2685365412526725e+01 1.6969792340549365e+01 2.8939443549480925e+00 0 0 0
4232 1 2.7083644959414354e+01 1.8455677041341261e+01 1.4684705174467934e+00 0 0 0
4233 1 2.5635871935913901e+01 1.7025760729423521e+01 2.7840146175159006e+00 0 0 0
4683 1 2.8410808005866254e+01 1.6958140364372582e+01 2.7810679375752483e+00 0 0 0
212 1 1.3877125338576251e+00 2.1440738472886441e+01 1.3028556865788774e+00 0 0 0
663 1 2.8419643800686685e+00 1.9971065452709656e+01 2.7634416256168532e+00 0 0 0
693 1 2.7002736338914346e+00 2.2805221418214522e+01 2.7675596000480285e+00 0 0 0
691 1 2.9630042121516560e+00 2.2830854057555641e+01 8.4834129724825069e-03 0 0 0
661 1 2.9111654216021345e+00 1.9945724555061567e+01 8.1605297379007870e-03 0 0 0
213 1 1.5714636130085768e-01 1.9966364543125270e+01 2.8146685565069736e+00 0 0 0
243 1 4.3746658316423007e-02 2.2753758666600298e+01 2.8559582162752473e+00 0 0 0
211 1 1.6455525677454094e-01 1.9842832874838116e+01 6.3047381872269312e-02 0 0 0
662 1 4.2438247861376244e+00 2.1472981180791624e+01 1.4735807949861444e+00 0 0 0
1113 1 5.7050406407941230e+00 2.0005297530039293e+01 2.5748602688725524e+00 0 0 0
1143 1 5.7277178545940846e+00 2.2814296917924857e+01 2.8241236863979795e+00 0 0 0
1112 1 7.1397616134883615e+00 2.1347841892241895e+01 1.3113132067316409e+00 0 0 0
1563 1 8.4872007125061444e+00 1.9855882203997052e+01 2.7921163420834962e+00 0 0 0
1593 1 8.5377238463507741e+00 2.2820790548975587e+01 2.7503486894089777e+00 0 0 0
1562 1 9.9384389782963289e+00 2.1218892427958369e+01 1.3832856827498663e+00 0 0 0
2013 1 1.1436046796928107e+01 1.9864530795943384e+01 2.8339400362958047e+00 0 0 0
2043 1 1.1311138462837816e+01 2.2548305296126209e+01 2.8450116859130490e+00 0 0 0
2012 1 1.2677255461723902e+01 2.1245363186925243e+01 1.3660200118771331e+00 0 0 0
2463 1 1.4230737968535349e+01 1.9768002201932234e+01 2.8948623058348599e+00 0 0 0
2493 1 1.4080805178536846e+01 2.2762258306971027e+01 2.6970814125025977e+00 0 0 0
2462 1 1.5581403382439301e+01 2.1257175428011365e+01 1.5097837102659377e+00 0 0 0
2491 1 1.4148933407938490e+01 2.2632236273495980e+01 3.0787911798281459e-02 0 0 0
2912 1 1.8554288514553257e+01 2.1193664435550772e+01 1.3686840844273866e+00 0 0 0
2913 1 1.7034594083904608e+01 1.9825414873721776e+01 2.8557775419153506e+00 0 0 0
2943 1 1.7072491689235417e+01 2.2675009491782369e+01 2.9207545031469104e+00 0 0 0
2941 1 1.7093561841915072e+01 2.2674877992833196e+01 6.7271994942649391e-02 0 0 0
3363 1 1.9882786399107182e+01 1.9828767387758450e+01 2.8643256219249742e+00 0 0 0
3393 1 1.9805320726814912e+01 2.2725404211336045e+01 2.9189952631534957e+00 0 0 0
3362 1 2.1310319761955466e+01 2.1307757143480714e+01 1.5893468775036654e+00 0 0 0
3391 1 1.9863511533285624e+01 2.2731886267367116e+01 6.9998621821484905e-02 0 0 0
3813 1 2.2857746490968474e+01 1.9887010345137195e+01 2.8305182053675928e+00 0 0 0
3812 1 2.4295750837562409e+01 2.1299447457358827e+01 1.4018610292394573e+00 0 0 0
3843 1 2.2947309378686121e+01 2.2650223790875710e+01 2.9163128973983405e+00 0 0 0
3841 1 2.2713929228900032e+01 2.2913153258428043e+01 2.1236592798821197e-01 0 0 0
3811 1 2.2740132411622795e+01 1.9935149275056833e+01 1.0591746819418214e-01 0 0 0
4262 1 2.7201974589257535e+01 2.1315369333300001e+01 1.4376279165931662e+00 0 0 0
4263 1 2.5722894404707080e+01 1.9968959240910749e+01 2.7645820748673433e+00 0 0 0
4293 1 2.5579260374318533e+01 2.2791142265590352e+01 2.7510643167806550e+00 0 0 0
4291 1 2.5721854226089143e+01 2.2833205426326675e+01 8.5017851049399351e-02 0 0 0
4261 1 2.5710602996741322e+01 1.9770881124139802e+01 1.4379239354329165e-01 0 0 0
4743 1 2.8446534410635614e+01 2.2819585969390527e+01 2.6789159389893329e+00 0 0 0
4713 1 2.8520852691344597e+01 1.9954422519024888e+01 2.8383645471964059e+00 0 0 0
242 1 1.4208784185359145e+00 2.4348538118314824e+01 1.2993356582371747e+00 0 0 0
723 1 2.9107836849209190e+00 2.5712907658223479e+01 2.7678018453260762e+00 0 0 0
273 1 2.1100454901744958e-02 2.5812512904438897e+01 2.8282803259686160e+00 0 0 0
692 1 4.2499458256385720e+00 2.4271058364135524e+01 1.3567462510534762e+00 0 0 0
1173 1 5.7419249222367919e+00 2.5705857318597246e+01 2.8310811641712843e+00 0 0 0
1142 1 6.9794402068725887e+00 2.4206394335496952e+01 1.2651804627986285e+00 0 0 0
1623 1 8.4918158715584173e+00 2.5596358371824106e+01 2.8738199760845635e+00 0 0 0
1621 1 8.6072722389923069e+00 2.5652063228877534e+01 1.4768841833263591e-02 0 0 0
1592 1 9.9927556155969661e+00 2.4180537289502201e+01 1.4725837386351783e+00 0 0 0
2073 1 1.1363963966016829e+01 2.5810622713869829e+01 2.9401955270655615e+00 0 0 0
2042 1 1.2559576922879973e+01 2.4212038564096797e+01 1.5856922724687426e+00 0 0 0
2071 1 1.1197416373399005e+01 2.5804831927674616e+01 2.5751892083194200e-02 0 0 0
2523 1 1.4126763070616752e+01 2.5685313363453204e+01 2.8016228979826709e+00 0 0 0
2492 1 1.5560040938455726e+01 2.4095332676261041e+01 1.3238393256755017e+00 0 0 0
2521 1 1.4130612482409445e+01 2.5621789457950221e+01 8.5876069562065116e-02 0 0 0
2942 1 1.8482771137772133e+01 2.4180279526548631e+01 1.5115394413458125e+00 0 0 0
2973 1 1.6916795931674347e+01 2.5633792256154564e+01 2.8360419551858520e+00 0 0 0
2971 1 1.6979637799930863e+01 2.5583050535657112e+01 7.3704657438400642e-02 0 0 0
3423 1 1.9877598121140384e+01 2.5671191968174675e+01 2.9719492823998377e+00 0 0 0
3392 1 2.1376620090654306e+01 2.4219536690289068e+01 1.6462718655503770e+00 0 0 0
3421 1 1.9904971332073433e+01 2.5613161363922906e+01 1.5531152707695756e-01 0 0 0
3842 1 2.4162918730975854e+01 2.4365848833797049e+01 1.3845939837554058e+00 0 0 0
3873 1 2.2709324422169416e+01 2.5764241400809766e+01 2.8454366340031627e+00 0 0 0
4292 1 2.7006764027079353e+01 2.4322494773895702e+01 1.4387344600535701e+00 0 0 0
4323 1 2.5655516845291256e+01 2.5662580738187128e+01 2.9126980934511342e+00 0 0 0
4321 1 2.5584052234505464e+01 2.5759191395286948e+01 4.8234250895733775e-03 0 0 0
4771 1 2.8506574514238245e+01 2.5700715105404388e+01 1.4963695511052661e-02 0 0 0
4773 1 2.8552680862338665e+01 2.5737544829579271e+01 2.8140677769452016e+00 0 0 0
272 1 1.2305431613211391e+00 2.7138592603921474e+01 1.3710684861777382e+00 0 0 0
753 1 2.7364771235274161e+00 2.8459069346051866e+01 2.8404983410805946e+00 0 0 0
303 1 6.9202189844725606e-02 2.8709024320117891e+01 2.8535183278239518e+00 0 0 0
722 1 4.2095905337683419e+00 2.7144409804724372e+01 1.4011820981146870e+00 0 0 0
1203 1 5.6393936925597714e+00 2.8653505566925688e+01 3.0497179656071700e+00 0 0 0
1172 1 7.1294895141994834e+00 2.7131705200743966e+01 1.3791780138351011e+00 0 0 0
1653 1 8.4391083521557633e+00 2.8584465996039476e+01 2.9374975542135182e+00 0 0 0
1651 1 8.5738303838563006e+00 2.8624466493677193e+01 7.4104502666984137e-02 0 0 0
1622 1 9.9015132182565324e+00 2.7213217562508913e+01 1.4396428653997688e+00 0 0 0
2103 1 1.1340868665461933e+01 2.8599019846558352e+01 2.9646999630564927e+00 0 0 0
2072 1 1.2687887889388646e+01 2.7224874341086139e+01 1.5170341054193714e+00 0 0 0
2553 1 1.4148830013530768e+01 2.8540936128918627e+01 2.8203233185534495e+00 0 0 0
2522 1 1.5522499137157919e+01 2.7082314010368304e+01 1.5272521265354422e+00 0 0 0
2551 1 1.4047950433448309e+01 2.8555303597284070e+01 7.6173334815240329e-02 0 0 0
2972 1 1.8463093875915330e+01 2.7076022525378374e+01 1.5295462506147965e+00 0 0 0
3003 1 1.6973670099036617e+01 2.8421609292085492e+01 2.8937372218182889e+00 0 0 0
3422 1 2.1343565885575622e+01 2.7076076086765731e+01 1.5552352510685084e+00 0 0 0
3453 1 1.9861764647796736e+01 2.8552439947764693e+01 2.8544601954347604e+00 0 0 0
3451 1 1.9916584469970786e+01 2.8371625583487312e+01 2.0362150741870835e-01 0 0 0
3872 1 2.4185339365285721e+01 2.7194065038636392e+01 1.4695865435362638e+00 0 0 0
3903 1 2.2791712404205359e+01 2.8632247772007940e+01 2.8132230677877477e+00 0 0 0
3901 1 2.2694407958989725e+01 2.8627644389359681e+01 2.6989299834882702e-02 0 0 0
4353 1 2.5664048132649764e+01 2.8692532138181459e+01 2.9228645491639362e+00 0 0 0
4322 1 2.7041462713143030e+01 2.7178427459888976e+01 1.4508523171352923e+00 0 0 0
4351 1 2.5624938134675688e+01 2.8686564982482810e+01 9.4755977301281422e-02 0 0 0
4803 1 2.8527211552257189e+01 2.8607100093384005e+01 2.8167921233000106e+00 0 0 0
302 1 1.3253759969938210e+00 3.0000300176788439e+01 1.4155714993323931e+00 0 0 0
783 1 2.6894870871717123e+00 3.1492157648385803e+01 2.8884748715700250e+00 0 0 0
332 1 1.3739285319209067e+00 3.2917236634133950e+01 1.5689729342215444e+00 0 0 0
781 1 2.7389871223383162e+00 3.1329770245850206e+01 1.0838633085243315e-01 0 0 0
331 1 1.4959996350995422e-01 3.1470371134440249e+01 7.6679560274794903e-02 0 0 0
752 1 4.1845830823411267e+00 3.0005669894929543e+01 1.5509963316460138e+00 0 0 0
1233 1 5.5512196949807002e+00 3.1570139075421210e+01 2.7844927181813062e+00 0 0 0
782 1 4.0629011228904757e+00 3.2898765956011943e+01 1.4075519452756955e+00 0 0 0
1231 1 5.6797828458633246e+00 3.1528449915518372e+01 1.5772337376566098e-01 0 0 0
1202 1 7.0403531322945883e+00 2.9856983083105575e+01 1.4078325221768906e+00 0 0 0
1683 1 8.5908250218320514e+00 3.1458378762407655e+01 2.7328972661901076e+00 0 0 0
1232 1 7.1276738512889501e+00 3.2805707280040494e+01 1.5024513792955592e+00 0 0 0
1681 1 8.6260886484199446e+00 3.1370596942264374e+01 3.2260237874035466e-02 0 0 0
1652 1 9.9807899488316796e+00 2.9860074819684307e+01 1.5713397834104619e+00 0 0 0
2133 1 1.1391780456061582e+01 3.1611727562838770e+01 2.8391391592482114e+00 0 0 0
1682 1 9.9550220096018247e+00 3.2923242891627325e+01 1.4653053129211853e+00 0 0 0
2102 1 1.2661660805925919e+01 2.9996620569663047e+01 1.5671868913710476e+00 0 0 0
2131 1 1.1496889336905655e+01 3.1441341441628808e+01 8.6495744902037527e-02 0 0 0
2132 1 1.2944288090202630e+01 3.2921131607173336e+01 1.4561867131052462e+00 0 0 0
2583 1 1.4345237553766143e+01 3.1433342128974452e+01 2.8238170891778824e+00 0 0 0
2552 1 1.5649205544847966e+01 2.9845244968493148e+01 1.4338757059551841e+00 0 0 0
2582 1 1.5654346290957625e+01 3.2872623357384718e+01 1.4691915510635589e+00 0 0 0
3002 1 1.8519905285580595e+01 3.0056466271210024e+01 1.5049803855222976e+00 0 0 0
3033 1 1.6974643397899072e+01 3.1370733181905177e+01 2.9823963777369977e+00 0 0 0
3032 1 1.8503620140087243e+01 3.2721383382303443e+01 1.4549561007862519e+00 0 0 0
3031 1 1.7099503007121182e+01 3.1359716797751666e+01 4.6129602957206538e-03 0 0 0
3452 1 2.1337366447286595e+01 3.0049310205580827e+01 1.5568261379979860e+00 0 0 0
3483 1 1.9847643506217580e+01 3.1409097427991053e+01 3.0673891521335328e+00 0 0 0
3482 1 2.1063249423685900e+01 3.2815220871852240e+01 1.5184663941106555e+00 0 0 0
3481 1 1.9796460155707802e+01 3.1301949989516839e+01 9.3864938667216194e-02 0 0 0
3902 1 2.4211217125172002e+01 3.0092830695640735e+01 1.5146109463991642e+00 0 0 0
3933 1 2.2767960166064448e+01 3.1501880792194736e+01 3.0608259849067272e+00 0 0 0
3932 1 2.4218711562411887e+01 3.2801172093982530e+01 1.5101559778021909e+00 0 0 0
3931 1 2.2769387170406407e+01 3.1435639907600383e+01 9.7250412740160858e-02 0 0 0
4352 1 2.7106652969420004e+01 3.0096339429551744e+01 1.5401127906054559e+00 0 0 0
4383 1 2.5701900950591615e+01 3.1545926086393230e+01 2.8420519351568494e+00 0 0 0
4382 1 2.7121134633534098e+01 3.2917655930102775e+01 1.4339658066973675e+00 0 0 0
4831 1 2.8543853467607018e+01 3.1351903612578059e+01 5.5342993498584424e-02 0 0 0
813 1 2.6595038468397205e+00 3.4270865315463972e+01 2.9935978887919146e+00 0 0 0
362 1 1.3276893625894295e+00 3.5739472663174460e+01 1.5050629482574092e+00 0 0 0
811 1 2.6768983659405294e+00 3.4310926373853526e+01 8.1073691723597380e-02 0 0 0
1263 1 5.5395898483260950e+00 3.4240998242905434e+01 2.8590275797414937e+00 0 0 0
812 1 4.1909369075928726e+00 3.5739124257785868e+01 1.5161974109746652e+00 0 0 0
1261 1 5.5479568608688652e+00 3.4233654954612845e+01 7.3692245052986272e-02 0 0 0
1713 1 8.4870454827230670e+00 3.4310584294950878e+01 2.9778362115683361e+00 0 0 0
1262 1 7.1064225663469891e+00 3.5602211223332958e+01 1.4955114259962790e+00 0 0 0
2163 1 1.1361358631869894e+01 3.4308985218043787e+01 2.8374205230878480e+00 0 0 0
1712 1 1.0080265497193041e+01 3.5729723109478741e+01 1.4376428586136947e+00 0 0 0
2161 1 1.1407433634821192e+01 3.4170082023063244e+01 9.2519748265482454e-02 0 0 0
2162 1 1.2751318428951196e+01 3.5784787976596519e+01 1.3666178628613332e+00 0 0 0
2613 1 1.4329539857716513e+01 3.4461809821950062e+01 2.9493627340841719e+00 0 0 0
2612 1 1.5624428041522091e+01 3.5782315806781128e+01 1.5862225776202921e+00 0 0 0
2611 1 1.4300576776382707e+01 3.4373269058215605e+01 6.1180470861156980e-02 0 0 0
3063 1 1.7015581514947662e+01 3.4339633723087807e+01 2.9286845951598606e+00 0 0 0
3061 1 1.7126802250638580e+01 3.4417009102365455e+01 1.3468385503755878e-01 0 0 0
3511 1 1.9227184585742737e+01 3.5083562921127537e+01 1.4369867612392946e+00 0 0 0
3512 1 2.1451748544133054e+01 3.5812869314372357e+01 1.6598478958493288e+00 0 0 0
3513 1 2.0049747631928319e+01 3.4266454586039359e+01 3.2453955563639472e+00 0 0 0
3963 1 2.2773645646273369e+01 3.4340801454234757e+01 2.7946702146813780e+00 0 0 0
3962 1 2.4145350207338556e+01 3.5778297762291707e+01 1.3326604872203349e+00 0 0 0
3961 1 2.2674874127893826e+01 3.4219341359132748e+01 3.7203547785187967e-02 0 0 0
4413 1 2.5795782788409809e+01 3.4448953172786169e+01 2.8821620517704529e+00 0 0 0
4412 1 2.7084750367960801e+01 3.5846537118734517e+01 1.3223734914383469e+00 0 0 0
4411 1 2.5669747071658549e+01 3.4237658424224939e+01 5.4618952106599457e-02 0 0 0
4863 1 2.8520358562791920e+01 3.4418435116348299e+01 2.8691570511863116e+00 0 0 0
392 1 1.4379081333438957e+00 3.8584698200751980e+01 1.4179924739345782e+00 0 0 0
843 1 2.7295697545424953e+00 3.7033675988146513e+01 3.0318445146377924e+00 0 0 0
841 1 2.8563907269962185e+00 3.7104821503363482e+01 1.4216117712258020e-01 0 0 0
393 1 7.2967974716988109e-04 3.7060455819427602e+01 2.9089913958285787e+00 0 0 0
391 1 7.2849168338200584e-02 3.7310814144456451e+01 5.9381168782738185e-02 0 0 0
842 1 4.1697506993596836e+00 3.8516937145490147e+01 1.5917587554784989e+00 0 0 0
1293 1 5.5576221620752131e+00 3.6999758203735055e+01 2.9692815813235560e+00 0 0 0
1291 1 5.5760873048935169e+00 3.7240688761817893e+01 5.3477191517634907e-02 0 0 0
1292 1 7.1086323437843051e+00 3.8442598835702988e+01 1.5605113159622923e+00 0 0 0
1743 1 8.5017871756120993e+00 3.6976861536221385e+01 2.9498644825995388e+00 0 0 0
1742 1 9.9039078505162070e+00 3.8450662075117286e+01 1.4253607318238155e+00 0 0 0
2193 1 1.1343154707318323e+01 3.7121509457948186e+01 3.0433333762611929e+00 0 0 0
2191 1 1.1446579889488861e+01 3.7058328247864274e+01 5.3070781331926310e-02 0 0 0
2192 1 1.2727837184107877e+01 3.8543969957829731e+01 1.5078456824872273e+00 0 0 0
2643 1 1.4140109529700926e+01 3.7261508407369625e+01 3.0018958261788611e+00 0 0 0
2642 1 1.5682254834484818e+01 3.8514178864063481e+01 1.4897994874087539e+00 0 0 0
2641 1 1.4292158229518233e+01 3.7175566467749888e+01 3.5577309581754604e-02 0 0 0
3062 1 1.7820311883059961e+01 3.6608400162932760e+01 1.6192272098319140e+00 0 0 0
3092 1 1.8530398336997983e+01 3.8730153816496859e+01 1.6569541554684104e+00 0 0 0
3543 1 1.9914092632990577e+01 3.7257359346271258e+01 3.0881550697104889e+00 0 0 0
3542 1 2.1340214715688880e+01 3.8799161707721886e+01 1.5230708384599516e+00 0 0 0
3541 1 1.9766739003803067e+01 3.7239017035186386e+01 2.8166104712549306e-01 0 0 0
3992 1 2.4196075665215073e+01 3.8771466989056506e+01 1.3779605417059020e+00 0 0 0
3993 1 2.2727464119799972e+01 3.7368221235875460e+01 2.8289714240677410e+00 0 0 0
3991 1 2.2809563597938265e+01 3.7346487268596633e+01 3.0003787441225129e-03 0 0 0
4442 1 2.6861914778617184e+01 3.8615175074802963e+01 1.3699326043858571e+00 0 0 0