LAMMPS data file via write_data, version 7 Aug 2019, timestep = 29000

9000 atoms
1 atom types

-1.2454929418246455e-04 5.7106124549294186e+01 xlo xhi
-9.3411970636848420e-05 4.2829593411970642e+01 ylo yhi
-9.3411970636848420e-05 4.2829593411970642e+01 zlo zhi

Masses

1 56

Atoms # atomic

2 1 1.4810598754635327e+00 1.5280482228838441e+00 1.4397105984657035e+00 0 0 0
483 1 2.9535974876795046e+00 2.8788996466886450e+00 2.8411021786296593e+00 0 0 0
453 1 2.8523200841552168e+00 5.4247670866860394e-02 2.8563430344153433e+00 0 0 0
451 1 2.8387267056701924e+00 1.1370960208026804e-01 3.4824191796012968e-02 0 0 0
1 1 9.6337342416358981e-02 1.3634987232083365e-01 3.5318977330340270e-02 0 0 0
31 1 9.8904825349387923e-02 2.8876502037814498e+00 1.9284354944776462e-02 0 0 0
3 1 7.4811511067492162e-02 1.8153406411908563e-01 2.9429411713621230e+00 0 0 0
452 1 4.3488714612733617e+00 1.5508303868603612e+00 1.4608505951448856e+00 0 0 0
933 1 5.6032815069491910e+00 2.9938985636013298e+00 2.7838206066661009e+00 0 0 0
903 1 5.7684413145062994e+00 2.4625732979977499e-02 2.8073752119432456e+00 0 0 0
902 1 7.0345683857205756e+00 1.5651189327890667e+00 1.4186261019595712e+00 0 0 0
1383 1 8.4475426239512164e+00 2.9668513490337292e+00 2.7996654002067975e+00 0 0 0
1353 1 8.4571129526009354e+00 2.5815724013978941e-02 2.7430911730196015e+00 0 0 0
1352 1 9.8101112021824086e+00 1.4642263371081254e+00 1.2545905018304571e+00 0 0 0
1833 1 1.1135919387265494e+01 2.9564572245537786e+00 2.7226164263319390e+00 0 0 0
1802 1 1.2688011444376899e+01 1.4017262180357224e+00 1.3575098685207947e+00 0 0 0
2283 1 1.4197678353565266e+01 2.9569102570782091e+00 2.6535918256874593e+00 0 0 0
2252 1 1.5530874709618002e+01 1.4593628869622330e+00 1.3042195307450035e+00 0 0 0
2253 1 1.4090438333491504e+01 1.9551135027390372e-02 2.7614121826634359e+00 0 0 0
2702 1 1.8474503458292009e+01 1.5337811101993988e+00 1.2585637167608541e+00 0 0 0
2733 1 1.7010986046120372e+01 2.9143703632504883e+00 2.6670072660458071e+00 0 0 0
2703 1 1.7085706799701459e+01 4.2843791678177083e-02 2.7761833570284900e+00 0 0 0
3183 1 1.9855280952730691e+01 2.9291565717220571e+00 2.7885267260276954e+00 0 0 0
3152 1 2.1323171266737589e+01 1.5682690940646455e+00 1.3083750213326499e+00 0 0 0
3153 1 1.9967765512875587e+01 3.3173221480148729e-02 2.7143816209810461e+00 0 0 0
3602 1 2.4306129696423479e+01 1.3669683274375524e+00 1.4001723814240121e+00 0 0 0
3633 1 2.2735946262560002e+01 2.9642838232646609e+00 2.7213591677338917e+00 0 0 0
4052 1 2.7245075542422594e+01 1.3268221332406369e+00 1.3273123709748738e+00 0 0 0
4083 1 2.5776892622350417e+01 2.8046148154682173e+00 2.8699128796603937e+00 0 0 0
32 1 1.3994298396580322e+00 4.3450914068929576e+00 1.2904639153875033e+00 0 0 0
513 1 2.8451668647557571e+00 5.8053869389982458e+00 2.8131787285706151e+00 0 0 0
63 1 3.5794504961387474e-02 5.7163683391388727e+00 2.7919654085049173e+00 0 0 0
482 1 4.1099105813903618e+00 4.2452383029038545e+00 1.3421365605501938e+00 0 0 0
963 1 5.5929111658593182e+00 5.6767279866964611e+00 2.8153708706165643e+00 0 0 0
932 1 7.0423973938429594e+00 4.2660901064989547e+00 1.3410568902166329e+00 0 0 0
1413 1 8.2872918368578858e+00 5.7396448991310427e+00 2.8083369391797346e+00 0 0 0
1382 1 9.9089125652017280e+00 4.4290246721885040e+00 1.3332585747161023e+00 0 0 0
1863 1 1.1164825313945272e+01 5.7583052005032167e+00 2.8619379443141972e+00 0 0 0
1832 1 1.2692514937026681e+01 4.3955531573412117e+00 1.4497260800531147e+00 0 0 0
2313 1 1.4010648848758732e+01 5.7024040952003174e+00 2.7397370726616503e+00 0 0 0
2282 1 1.5575594446552271e+01 4.4515273944632439e+00 1.4124596649789323e+00 0 0 0
2732 1 1.8452569448645125e+01 4.3568124648252642e+00 1.2433661712945858e+00 0 0 0
2763 1 1.6999312301150226e+01 5.8955450208772096e+00 2.7342402950571678e+00 0 0 0
3213 1 1.9836327489043235e+01 5.6242385966244761e+00 2.7032504599775540e+00 0 0 0
3182 1 2.1335470907009281e+01 4.3623608234831606e+00 1.3722128692450779e+00 0 0 0
3632 1 2.4406341791479683e+01 4.2620665921578977e+00 1.3540013540585372e+00 0 0 0
3663 1 2.2921323320856917e+01 5.7380737953698242e+00 2.6842880410075116e+00 0 0 0
4082 1 2.7213076910922421e+01 4.3431510344857216e+00 1.3308863350933651e+00 0 0 0
4113 1 2.5763660726121337e+01 5.7082783207810248e+00 2.8227747776391752e+00 0 0 0
62 1 1.3111860795471586e+00 7.1998891344535982e+00 1.3489659048587925e+00 0 0 0
543 1 2.7006397516766545e+00 8.5795917135664279e+00 2.6359937535743483e+00 0 0 0
512 1 4.2646371323173735e+00 7.1247187820081646e+00 1.3446730272504905e+00 0 0 0
993 1 5.4814315767665764e+00 8.6072321667350504e+00 2.6617715503090285e+00 0 0 0
991 1 5.6912578726503025e+00 8.5366095673160611e+00 9.0852365686089342e-03 0 0 0
962 1 6.8280188704954066e+00 7.0939330899364519e+00 1.3142420361986238e+00 0 0 0
1443 1 8.3019757603749778e+00 8.7328685342084249e+00 2.6075740973053709e+00 0 0 0
1412 1 9.8638801276958841e+00 7.1545282313580509e+00 1.3402803718479563e+00 0 0 0
1893 1 1.1240202172490800e+01 8.5321853943217860e+00 2.7158575740283029e+00 0 0 0
1862 1 1.2602779035862262e+01 7.2134190591402731e+00 1.2926610378184871e+00 0 0 0
2343 1 1.3969571362792452e+01 8.4923155606538216e+00 2.6994082676416706e+00 0 0 0
2312 1 1.5458278802485893e+01 7.1901274443881258e+00 1.2825513709341470e+00 0 0 0
2762 1 1.8410555882157876e+01 7.2864376630518146e+00 1.3059052433179104e+00 0 0 0
2793 1 1.6911828652541736e+01 8.6544098117193755e+00 2.6402974235731524e+00 0 0 0
3212 1 2.1362992265264424e+01 7.0838000943911332e+00 1.2640312974672676e+00 0 0 0
3243 1 1.9881177327635381e+01 8.5888898048190132e+00 2.7443673522316940e+00 0 0 0
3662 1 2.4336578319394924e+01 6.9655574599277124e+00 1.2704200434299890e+00 0 0 0
3693 1 2.2867164445389683e+01 8.4658937580761684e+00 2.6444165690245520e+00 0 0 0
4112 1 2.7184682646415897e+01 6.9837813193345273e+00 1.2590023578021123e+00 0 0 0
4143 1 2.5765590687349217e+01 8.6408208024339785e+00 2.5520930915339011e+00 0 0 0
92 1 1.3901522517569560e+00 1.0076468263404330e+01 1.2357384186603952e+00 0 0 0
573 1 2.7867932914813398e+00 1.1499516706900136e+01 2.5658579343956007e+00 0 0 0
122 1 1.2212225477129857e+00 1.2875296033969891e+01 1.3305901358167236e+00 0 0 0
542 1 4.2744265193395794e+00 9.9704476531826334e+00 1.2284336392138737e+00 0 0 0
1023 1 5.5147757580977999e+00 1.1520134747247134e+01 2.6971399869323887e+00 0 0 0
572 1 4.1223692793634017e+00 1.2926994309635287e+01 1.3209215210522676e+00 0 0 0
992 1 6.8909827311592196e+00 1.0104955188589265e+01 1.2698967537169710e+00 0 0 0
1473 1 7.1087000891752581e+00 1.2886403749965357e+01 1.3446007136290101e+00 0 0 0
1444 1 8.3607137000556886e+00 1.1572649839220814e+01 2.9009072468991217e+00 0 0 0
1442 1 9.8231070681251200e+00 1.0072396251052117e+01 1.3026001437248322e+00 0 0 0
1923 1 1.1282322249439588e+01 1.1439006567293916e+01 2.7575803998988357e+00 0 0 0
1472 1 9.9776167116955001e+00 1.2883122742665922e+01 1.4542071575312654e+00 0 0 0
1892 1 1.2796734702067605e+01 9.9970506483919728e+00 1.3119927559168574e+00 0 0 0
1922 1 1.2803659378128811e+01 1.2800709750572425e+01 1.3748712899417892e+00 0 0 0
2373 1 1.4200083411081295e+01 1.1506314558812845e+01 2.8259318727489617e+00 0 0 0
2342 1 1.5436701355222551e+01 9.9715777559498608e+00 1.2697306041766436e+00 0 0 0
2372 1 1.5410593151580247e+01 1.2978008443104068e+01 1.3898156321294080e+00 0 0 0
2792 1 1.8456506504770037e+01 9.9551781834018982e+00 1.3910313014699294e+00 0 0 0
2823 1 1.6886517576602738e+01 1.1451423924581757e+01 2.8612912723339234e+00 0 0 0
2822 1 1.8389932797086143e+01 1.2901592403623887e+01 1.3889393818158788e+00 0 0 0
3242 1 2.1349113335266203e+01 1.0008460223112008e+01 1.5235346876474753e+00 0 0 0
3273 1 1.9856245128301339e+01 1.1478182175402829e+01 2.8907264558966803e+00 0 0 0
3272 1 2.1219850183669664e+01 1.2941224338042796e+01 1.5020381278703596e+00 0 0 0
3271 1 1.9889717241307519e+01 1.1364601107099185e+01 8.7484548639156140e-02 0 0 0
3692 1 2.4251604264093679e+01 1.0084078864873337e+01 1.2349189348748306e+00 0 0 0
3723 1 2.2951654911668442e+01 1.1529528344487483e+01 2.7446589560757912e+00 0 0 0
3722 1 2.4377712013296943e+01 1.2850604601139366e+01 1.3353028571920798e+00 0 0 0
3721 1 2.2667853450118866e+01 1.1404906347511588e+01 8.1304932964325491e-02 0 0 0
4142 1 2.7191290513631909e+01 1.0140720950293474e+01 1.4093203287776304e+00 0 0 0
4173 1 2.5699654754439472e+01 1.1477658338909070e+01 2.7255708401712275e+00 0 0 0
4172 1 2.7146105208736252e+01 1.2923719520970709e+01 1.3785444363938248e+00 0 0 0
4621 1 2.8495376163172104e+01 1.1446177749582077e+01 6.7485444915146062e-02 0 0 0
4623 1 2.8534167731113634e+01 1.1437208584239073e+01 2.8971924503135389e+00 0 0 0
603 1 2.6655663265682525e+00 1.4190901877498584e+01 2.7344871392844285e+00 0 0 0
152 1 1.3842048129127147e+00 1.5670636454502105e+01 1.3717854891694259e+00 0 0 0
1053 1 5.5015204649662897e+00 1.4315658490559269e+01 2.7563417584627925e+00 0 0 0
602 1 4.0731683241772805e+00 1.5489306699641807e+01 1.3241437970784764e+00 0 0 0
1503 1 8.3284165936787158e+00 1.4369301280307088e+01 2.7076154655418176e+00 0 0 0
1052 1 6.9063287706931318e+00 1.5677773686472667e+01 1.3280653357042158e+00 0 0 0
1953 1 1.1378740499138463e+01 1.4380824516722779e+01 2.6423003360898192e+00 0 0 0
1502 1 9.7337154463299917e+00 1.5755601856563993e+01 1.3621683225977617e+00 0 0 0
1952 1 1.2672723219751459e+01 1.5685596600754685e+01 1.3040373756556560e+00 0 0 0
1951 1 1.1230213892321775e+01 1.4243334049264558e+01 6.1019820202897916e-02 0 0 0
2403 1 1.4082628261583693e+01 1.4300984594010648e+01 2.8851407378874532e+00 0 0 0
2402 1 1.5666197208188130e+01 1.5903139695696298e+01 1.4781373978925463e+00 0 0 0
2853 1 1.6918953065301768e+01 1.4348052543628496e+01 2.7265064008774322e+00 0 0 0
2852 1 1.8472279911913290e+01 1.5851025947157082e+01 1.5267986187075093e+00 0 0 0
3303 1 1.9768189965704849e+01 1.4261521184032398e+01 2.8741851333775839e+00 0 0 0
3302 1 2.1367720445754671e+01 1.5589291410202337e+01 1.5695042238510095e+00 0 0 0
3753 1 2.2849160549884932e+01 1.4310072436580446e+01 2.8480013599214211e+00 0 0 0
3752 1 2.4235972722627075e+01 1.5740387213982743e+01 1.3393140701070347e+00 0 0 0
4203 1 2.5641885221935471e+01 1.4554291462951404e+01 2.8080764355911922e+00 0 0 0
4202 1 2.7235111048385956e+01 1.5719641865469521e+01 1.3595668537733208e+00 0 0 0
4201 1 2.5698634949634357e+01 1.4360316418066031e+01 4.4707205090797411e-02 0 0 0
182 1 1.3327258979248047e+00 1.8655004279652001e+01 1.4180425909703676e+00 0 0 0
633 1 2.6890032208511623e+00 1.7154966168713752e+01 2.7728356592734293e+00 0 0 0
183 1 3.3143593184405518e-02 1.7115558701501964e+01 2.9196019198319854e+00 0 0 0
632 1 4.1424274393155445e+00 1.8488548396376537e+01 1.3333340893550871e+00 0 0 0
1083 1 5.5836946194852466e+00 1.7095565155601392e+01 2.6599306440124604e+00 0 0 0
1082 1 6.9422589443023686e+00 1.8513148637001805e+01 1.3833257905018523e+00 0 0 0
1533 1 8.2732466620360903e+00 1.7102681939739213e+01 2.7701343096166262e+00 0 0 0
1532 1 9.8832513541826970e+00 1.8493896316314917e+01 1.4243542008288621e+00 0 0 0
1983 1 1.1284297863201527e+01 1.6982091021461603e+01 2.7939377352097714e+00 0 0 0
1981 1 1.1187192223235526e+01 1.7069773801019636e+01 1.8495809857413444e-02 0 0 0
1982 1 1.2607033905743576e+01 1.8608078648197896e+01 1.5185920544973890e+00 0 0 0
2433 1 1.4079424191153636e+01 1.7157505687360462e+01 2.8841047921817595e+00 0 0 0
2432 1 1.5319189688082746e+01 1.8620531802940739e+01 1.4483463967512704e+00 0 0 0
2882 1 1.8436882111837726e+01 1.8500422984459455e+01 1.4680355015770232e+00 0 0 0
2883 1 1.6839990105486532e+01 1.7241737742640574e+01 2.8606821840600887e+00 0 0 0
2881 1 1.6960460744257361e+01 1.7178229229413095e+01 1.0370600572179403e-02 0 0 0
3333 1 1.9936270436427016e+01 1.7237013536264197e+01 2.8742519366206647e+00 0 0 0
3332 1 2.1198734500383839e+01 1.8618696034765847e+01 1.3433706078551209e+00 0 0 0
3331 1 1.9921413283964750e+01 1.7015378928807475e+01 4.8525301704155102e-02 0 0 0
3782 1 2.4157621685615517e+01 1.8585852810660981e+01 1.5365603283470393e+00 0 0 0
3783 1 2.2835994993485027e+01 1.7182750880749282e+01 2.8683136825191182e+00 0 0 0
4232 1 2.7169049358718301e+01 1.8605959032259694e+01 1.4952741937733747e+00 0 0 0
4233 1 2.5689455036785386e+01 1.7276853906014765e+01 2.9158472464042973e+00 0 0 0
4683 1 2.8495961176430505e+01 1.7293174299602171e+01 2.8961923569557961e+00 0 0 0
212 1 1.4528402627825279e+00 2.1379054470985402e+01 1.3851351438762649e+00 0 0 0
663 1 2.8258871021419862e+00 2.0020924988773167e+01 2.7224778411261328e+00 0 0 0
693 1 2.7293205382547803e+00 2.2761645505877429e+01 2.8231761891253515e+00 0 0 0
691 1 2.7400648827518022e+00 2.2775920036313753e+01 4.5240391458193814e-02 0 0 0
661 1 2.7546025623828831e+00 1.9985200471390833e+01 3.8216301082078206e-02 0 0 0
1113 1 5.8140161730458564e+00 1.9980571870438467e+01 2.7586530650851495e+00 0 0 0
662 1 4.2217518299606169e+00 2.1493408070953414e+01 1.3698516646281371e+00 0 0 0
1143 1 5.6079682295202762e+00 2.2785005959497500e+01 2.9312632150248135e+00 0 0 0
1111 1 5.3606826941270436e+00 1.9983069971061589e+01 4.3868111693718959e-02 0 0 0
1141 1 5.5468547180264105e+00 2.2783611527220483e+01 1.3001563120099036e-02 0 0 0
1563 1 8.5015150792661629e+00 1.9897749737411683e+01 2.8164018771942363e+00 0 0 0
1112 1 6.9862118851990882e+00 2.1323673410644130e+01 1.3917689439030740e+00 0 0 0
1593 1 8.3695041510209123e+00 2.2844827388538160e+01 2.8282719176160724e+00 0 0 0
1591 1 8.4284407994420150e+00 2.2896848662814772e+01 1.5900605559488482e-01 0 0 0
1562 1 9.8874036282765498e+00 2.1379526631345968e+01 1.4691761413646514e+00 0 0 0
2013 1 1.1241986802211072e+01 2.0024765249913845e+01 3.0289549458466074e+00 0 0 0
2043 1 1.1201268888384634e+01 2.2872502328421891e+01 2.9529034263225360e+00 0 0 0
2041 1 1.1257211639156738e+01 2.2901687208186850e+01 1.0699079359166536e-01 0 0 0
2011 1 1.1225460277619604e+01 1.9913894377308274e+01 5.2043112226868971e-02 0 0 0
2012 1 1.2638950761391158e+01 2.1335626424533757e+01 1.4547099902294711e+00 0 0 0
2463 1 1.4102621058413240e+01 2.0034838436658610e+01 2.9374170701363291e+00 0 0 0
2493 1 1.4120654318330301e+01 2.2709050078477070e+01 2.8345153780706887e+00 0 0 0
2462 1 1.5544203630323175e+01 2.1428745671714015e+01 1.4203082569699128e+00 0 0 0
2491 1 1.3962074887561910e+01 2.2791090899776616e+01 9.9601706069476534e-02 0 0 0
2912 1 1.8399831648485943e+01 2.1495438505816498e+01 1.3675994376725293e+00 0 0 0
2913 1 1.6962258839709428e+01 2.0130453021638740e+01 2.9082070489791825e+00 0 0 0
2943 1 1.6975243285453786e+01 2.2792600821880569e+01 2.9209287406520521e+00 0 0 0
2941 1 1.6894277532528232e+01 2.2942981425445556e+01 7.7557748071143712e-02 0 0 0
2911 1 1.6917713712231052e+01 1.9967001292203797e+01 6.3080402393190127e-02 0 0 0
3363 1 1.9865567816388463e+01 2.0018573613799429e+01 2.8482092708317071e+00 0 0 0
3393 1 2.0014981184821455e+01 2.2930465063624535e+01 2.9462137927870153e+00 0 0 0
3362 1 2.1309901416152403e+01 2.1409340300331642e+01 1.5000649002758422e+00 0 0 0
3361 1 1.9756526330673317e+01 1.9950907422041873e+01 8.4027138651613903e-02 0 0 0
3391 1 1.9868654733162654e+01 2.3033197098508079e+01 5.4270176344532454e-02 0 0 0
3812 1 2.4304674688357345e+01 2.1336584054755836e+01 1.2960267087857733e+00 0 0 0
3813 1 2.2819673112984951e+01 2.0034115799362873e+01 2.8063080739348805e+00 0 0 0
3843 1 2.2924952204176773e+01 2.2823388104254352e+01 2.9786664858589682e+00 0 0 0
3841 1 2.2880065288292297e+01 2.2796234120762502e+01 9.2210618248103060e-03 0 0 0
4262 1 2.7269546495565361e+01 2.1555558720551161e+01 1.3106475399189830e+00 0 0 0
4263 1 2.5737374174620999e+01 2.0061177445517522e+01 2.8597329875113928e+00 0 0 0
4293 1 2.5759138126133024e+01 2.2673325575608153e+01 2.7740045265194033e+00 0 0 0
4261 1 2.5780518460284778e+01 2.0012752147526996e+01 2.0362185528025257e-02 0 0 0
242 1 1.3292615850097562e+00 2.4240134451851251e+01 1.4514664987223882e+00 0 0 0
723 1 2.6941202705148459e+00 2.5663337616500080e+01 2.8107365221370815e+00 0 0 0
721 1 2.7910101377924010e+00 2.5728019114571598e+01 9.8280217529470859e-02 0 0 0
692 1 4.0921083609254501e+00 2.4202548331340669e+01 1.4680390089920523e+00 0 0 0
1173 1 5.5499893632608472e+00 2.5762418223242381e+01 2.8363579915085877e+00 0 0 0
1171 1 5.5280543724533251e+00 2.5678300021315355e+01 4.2017028489100050e-02 0 0 0
1142 1 6.8858981710499840e+00 2.4244039973982893e+01 1.4195924669194762e+00 0 0 0
1623 1 8.4310328245056976e+00 2.5689942827378268e+01 2.8868857575627813e+00 0 0 0
1621 1 8.3345952946249611e+00 2.5818735510108723e+01 8.0299477633304167e-02 0 0 0
1592 1 9.7659465100748317e+00 2.4243974817504128e+01 1.5280695181365662e+00 0 0 0
2073 1 1.1194144132665151e+01 2.5660375570134018e+01 2.9137930782200905e+00 0 0 0
2042 1 1.2623419214523240e+01 2.4299283557548534e+01 1.5491503234249688e+00 0 0 0
2523 1 1.4125382852011356e+01 2.5678095293736714e+01 2.8487803889680250e+00 0 0 0
2492 1 1.5410905841106803e+01 2.4322999900045176e+01 1.4842491558377957e+00 0 0 0
2521 1 1.4014535190659663e+01 2.5692729555594038e+01 2.7417495449577022e-02 0 0 0
2942 1 1.8315426624755226e+01 2.4258223213365067e+01 1.4854606695456247e+00 0 0 0
2973 1 1.7041366699766918e+01 2.5737069027614410e+01 2.8673770068086357e+00 0 0 0
2971 1 1.7038776330133619e+01 2.5793213069476685e+01 3.9774773145900610e-02 0 0 0
3423 1 1.9914381625595585e+01 2.5662466781842234e+01 2.8492782796878346e+00 0 0 0
3392 1 2.1433513212851736e+01 2.4154704006720607e+01 1.3673900238108452e+00 0 0 0
3421 1 1.9867033570425924e+01 2.5663869992643555e+01 7.5406686245635735e-02 0 0 0
3842 1 2.4175266320018039e+01 2.4242340275172527e+01 1.3831667519888273e+00 0 0 0
3873 1 2.2885803116904121e+01 2.5761826491118189e+01 2.7324200153337226e+00 0 0 0
4292 1 2.7304592845574298e+01 2.4170062747191110e+01 1.4910879548385076e+00 0 0 0
4323 1 2.5895692059304949e+01 2.5696324532049868e+01 2.6818040185806966e+00 0 0 0
4321 1 2.5819873577575983e+01 2.5601542142307043e+01 6.1830670688526858e-02 0 0 0
4773 1 2.8526099315582254e+01 2.5817675098320606e+01 2.8539541462244871e+00 0 0 0
272 1 1.3904071342994309e+00 2.7321746053435298e+01 1.4840638479274990e+00 0 0 0
753 1 2.7003477769108284e+00 2.8461296506525063e+01 2.9547630294775469e+00 0 0 0
751 1 2.8984992767589399e+00 2.8671141981964546e+01 1.7799329886289652e-02 0 0 0
722 1 4.1842910375602331e+00 2.7233092996169539e+01 1.5557368743517819e+00 0 0 0
1203 1 5.6048403014178261e+00 2.8641069579329312e+01 2.9026830143419384e+00 0 0 0
1201 1 5.4548721524218031e+00 2.8539249277536090e+01 3.5393204302110348e-02 0 0 0
1172 1 6.7978863038932982e+00 2.7269423593967542e+01 1.3367516611579142e+00 0 0 0
1653 1 8.3774709698330074e+00 2.8494690749886011e+01 2.8012472620593334e+00 0 0 0
1622 1 9.7740902683418813e+00 2.7246396022242134e+01 1.5616709278163468e+00 0 0 0
2103 1 1.1324645923205548e+01 2.8574315610939021e+01 2.8310275719168718e+00 0 0 0
2101 1 1.1253287385279810e+01 2.8468931116605411e+01 9.4181486006434056e-02 0 0 0
2072 1 1.2736528567990282e+01 2.7120858022736535e+01 1.5136339376202641e+00 0 0 0
2553 1 1.4146532119046828e+01 2.8428904403271034e+01 2.7786262658206602e+00 0 0 0
2522 1 1.5584329953185318e+01 2.7179337019223439e+01 1.4266669191747929e+00 0 0 0
2972 1 1.8408964170792906e+01 2.7070856821210572e+01 1.5261079266525508e+00 0 0 0
3003 1 1.7105256175670991e+01 2.8449394041497932e+01 2.7661853429983108e+00 0 0 0
3001 1 1.7154425522678952e+01 2.8541739196297488e+01 3.1121250640012907e-02 0 0 0
3422 1 2.1329499405201386e+01 2.7073074200002516e+01 1.4721214491473062e+00 0 0 0
3453 1 1.9894133910913801e+01 2.8473176498125650e+01 2.7634381870445921e+00 0 0 0
3451 1 1.9800947120562615e+01 2.8553220654250556e+01 5.3851317666655518e-03 0 0 0
3872 1 2.4377200948615933e+01 2.7214222942262218e+01 1.3866961439405259e+00 0 0 0
3903 1 2.2832350571317036e+01 2.8553371095316837e+01 2.9344526282351140e+00 0 0 0
4322 1 2.7285076422196397e+01 2.7247669237281873e+01 1.3298000791713147e+00 0 0 0
4353 1 2.5676376049826917e+01 2.8658640215011658e+01 2.8963413430141203e+00 0 0 0
4803 1 2.8456093155894362e+01 2.8736647272569549e+01 2.7944081808606098e+00 0 0 0
302 1 1.2991633340158724e+00 2.9905358421442472e+01 1.5309431681089152e+00 0 0 0
783 1 2.6989087497932633e+00 3.1443989085106686e+01 2.8317192488968757e+00 0 0 0
332 1 1.2567319940409474e+00 3.2876586653774332e+01 1.3741633704861145e+00 0 0 0
781 1 2.8594935018631178e+00 3.1493178639275790e+01 1.3656222315961819e-01 0 0 0
752 1 4.0560132132441451e+00 2.9994020373719000e+01 1.5222615174987539e+00 0 0 0
1233 1 5.6314836073998285e+00 3.1295331106093464e+01 2.9460676366789902e+00 0 0 0
782 1 4.1952542861907487e+00 3.2860433509090903e+01 1.4818503327742603e+00 0 0 0
1231 1 5.5714333494236961e+00 3.1523175472745184e+01 1.1394369060318349e-02 0 0 0
1202 1 6.9610655500625791e+00 2.9998172924919249e+01 1.4123781865575797e+00 0 0 0
1683 1 8.4320209336939840e+00 3.1495575708817338e+01 2.9052839071587311e+00 0 0 0
1232 1 7.0578519512499227e+00 3.2741881656589932e+01 1.4558429541357347e+00 0 0 0
1652 1 9.8069316482874260e+00 3.0002572483837628e+01 1.3327040244586228e+00 0 0 0
2133 1 1.1285307574011524e+01 3.1314308925494693e+01 2.8494197142246911e+00 0 0 0
1682 1 9.9113743759897748e+00 3.2801958937395419e+01 1.3344155056082678e+00 0 0 0
2132 1 1.2659270612585631e+01 3.2783085658397788e+01 1.3699723720352290e+00 0 0 0
2102 1 1.2817906637779526e+01 2.9908843137283952e+01 1.5053188307131333e+00 0 0 0
2582 1 1.5626569489637692e+01 3.2775263436551221e+01 1.4000638326942436e+00 0 0 0
2583 1 1.4285107882601464e+01 3.1450880470779136e+01 2.8255444626607287e+00 0 0 0
2552 1 1.5575720316033248e+01 2.9872432746929036e+01 1.3269297094133383e+00 0 0 0
3002 1 1.8408033638512702e+01 3.0058085381618973e+01 1.2863519813943252e+00 0 0 0
3033 1 1.7099670258583693e+01 3.1313576104225415e+01 2.8054419313900105e+00 0 0 0
3032 1 1.8434272518301366e+01 3.2906540980233466e+01 1.2199110202771399e+00 0 0 0
3452 1 2.1397577049919683e+01 2.9829382980071617e+01 1.4377841241920759e+00 0 0 0
3483 1 1.9962927182997845e+01 3.1344068461718269e+01 2.7480425536587911e+00 0 0 0
3482 1 2.1339842015931048e+01 3.2801787038604466e+01 1.3043861256732605e+00 0 0 0
3481 1 1.9808249116416484e+01 3.1294075983282383e+01 1.6334153742157298e-02 0 0 0
3902 1 2.4309556806424258e+01 2.9983697813855880e+01 1.4931406995575471e+00 0 0 0
3933 1 2.2785497620344518e+01 3.1453157889254296e+01 2.8547467967367046e+00 0 0 0
3932 1 2.4364896989499922e+01 3.2866686209501516e+01 1.4004081848309728e+00 0 0 0
3931 1 2.2851866990799660e+01 3.1315857037899075e+01 6.7034961125277501e-02 0 0 0
4352 1 2.7201901987971873e+01 3.0193812711403773e+01 1.3904932745459655e+00 0 0 0
4383 1 2.5757741174708567e+01 3.1583806700629513e+01 2.8994613519597672e+00 0 0 0
4382 1 2.7269289762989477e+01 3.2827936024519779e+01 1.3790335946152910e+00 0 0 0
4381 1 2.5790956771894301e+01 3.1510447657793431e+01 1.6009047197158566e-02 0 0 0
813 1 2.6424838861897588e+00 3.4319052627584178e+01 2.8191360136705508e+00 0 0 0
362 1 1.3558357682719031e+00 3.5677475685028959e+01 1.3457506627528821e+00 0 0 0
1263 1 5.5619225057105668e+00 3.4237132439536708e+01 2.8186395345170356e+00 0 0 0
812 1 4.2148981895764939e+00 3.5792291963787115e+01 1.4680315000056556e+00 0 0 0
1261 1 5.5669955655442562e+00 3.4352700325699452e+01 1.2426003345900938e-02 0 0 0
1713 1 8.4234859070640535e+00 3.4207612368819369e+01 2.8662971667211932e+00 0 0 0
1262 1 7.0294290508309958e+00 3.5677570028264832e+01 1.3222377244662014e+00 0 0 0
2163 1 1.1218466375815503e+01 3.4311038528783982e+01 2.8632726021131125e+00 0 0 0
1712 1 9.8297766317870376e+00 3.5785751169249252e+01 1.3864305695527646e+00 0 0 0
2162 1 1.2822421945768140e+01 3.5598200035559188e+01 1.3625300415028632e+00 0 0 0
2613 1 1.4201799208222370e+01 3.4076490110683565e+01 2.8219128175112185e+00 0 0 0
2612 1 1.5561395735974909e+01 3.5696827764891154e+01 1.3957948299082068e+00 0 0 0
2611 1 1.4131648380547881e+01 3.4234319266816058e+01 5.4570791946823453e-02 0 0 0
3063 1 1.7030887708087349e+01 3.4239917455810932e+01 2.7559042534356504e+00 0 0 0
3062 1 1.8490145034301637e+01 3.5626171507643924e+01 1.3386100855885428e+00 0 0 0
3513 1 1.9949079487789426e+01 3.4356108144738990e+01 2.6723838722039059e+00 0 0 0
3512 1 2.1395640191205722e+01 3.5561486820604486e+01 1.3009814303643068e+00 0 0 0
3963 1 2.2899868449806601e+01 3.4284951319393898e+01 2.7511034243239170e+00 0 0 0
3962 1 2.4349219324783700e+01 3.5766488947546875e+01 1.2202672828452286e+00 0 0 0
3961 1 2.2778693914739890e+01 3.4182659177237113e+01 1.2152400804667056e-01 0 0 0
4413 1 2.5852712425840409e+01 3.4339404936635049e+01 2.8094821423298728e+00 0 0 0
4412 1 2.7239149664910467e+01 3.5723002558738806e+01 1.4056786189470249e+00 0 0 0
392 1 1.3957728774677747e+00 3.8722771534542382e+01 1.2417470580449910e+00 0 0 0
843 1 2.7631720934068613e+00 3.7102834567700057e+01 2.7667973619800659e+00 0 0 0
1291 1 5.5520251222330481e+00 3.7098678183466070e+01 1.0050706071569238e-01 0 0 0
842 1 4.2137274553662980e+00 3.8572701790854381e+01 1.4425406685367186e+00 0 0 0
1293 1 5.4950454681560750e+00 3.7139453301663544e+01 2.9399757989039443e+00 0 0 0
1292 1 7.0648971844190660e+00 3.8508236659219165e+01 1.4527184619391165e+00 0 0 0
1743 1 8.3310883950973782e+00 3.7038494176145896e+01 2.9854467437937577e+00 0 0 0
1742 1 9.7159027225955032e+00 3.8289930672143100e+01 1.4934979807149835e+00 0 0 0
2193 1 1.1228021364132909e+01 3.6992150521718749e+01 2.8704085432372963e+00 0 0 0
2192 1 1.2689275388766440e+01 3.8338609806377889e+01 1.4684715852704606e+00 0 0 0
2643 1 1.4145686628215900e+01 3.7197667711112722e+01 2.8159318160603943e+00 0 0 0
2642 1 1.5713105256290461e+01 3.8485984638575808e+01 1.2254619571050922e+00 0 0 0
3092 1 1.8486963674605072e+01 3.8531937858043911e+01 1.2895783652863493e+00 0 0 0
3093 1 1.7036066864113693e+01 3.7188444646022148e+01 2.8445194496745505e+00 0 0 0
3543 1 1.9902949354360267e+01 3.7064933447753987e+01 2.7015267085266235e+00 0 0 0
3542 1 2.1324309708689697e+01 3.8405028431790285e+01 1.3025599082159049e+00 0 0 0
3992 1 2.4307180526670482e+01 3.8561339662812216e+01 1.2163335109437701e+00 0 0 0
3993 1 2.2782736370476357e+01 3.7073043945201775e+01 2.6062571223709403e+00 0 0 0
4442 1 2.7182829070740123e+01 3.8459821738336160e+01 1.5146939720955703e+00 0 0 0
4443 1 2.5535993064226833e+01 3.7193452490695279e+01 2.7939505169947330e+00 0 0 0
4441 1 2.5793772854699217e+01 3.7145991575756362e+01 1.6086713468828732e-02 0 0 0
422 1 1.4251246213505637e+00 4.1464792767574245e+01 1.4445355622495319e+00 0 0 0
873 1 2.7704919320786212e+00 3.9913986499108027e+01 2.7480364500678420e+00 0 0 0
423 1 8.2742782120410488e-02 4.0133827353152469e+01 2.8517880278991896e+00 0 0 0
421 1 2.5912649163255204e-02 4.0052581747412923e+01 -4.4831010894459981e-05 0 0 0
872 1 4.1846500518321914e+00 4.1446104472766486e+01 1.3852841304724139e+00 0 0 0
1323 1 5.5964853750231320e+00 3.9984303312370443e+01 2.8246417592344608e+00 0 0 0
901 1 5.6265869112238214e+00 4.2802115545033843e+01 5.1584378932240327e-02 0 -1 0
1773 1 8.4215475751015010e+00 3.9912962205065355e+01 2.7608081566257399e+00 0 0 0
1322 1 7.0462870834712854e+00 4.1288300810984254e+01 1.2577178780917808e+00 0 0 0
1771 1 8.4636218039854949e+00 3.9867615406079842e+01 1.9701391627052089e-02 0 0 0
1805 1 1.1217437734074995e+01 4.2797215184461038e+01 2.6733982844184467e+00 0 -1 0
2223 1 1.1314368000765542e+01 3.9818067168103383e+01 2.7085118140350719e+00 0 0 0
1772 1 9.9430404211986598e+00 4.1445019761954356e+01 1.4176064403480546e+00 0 0 0
2222 1 1.2712272258714066e+01 4.1304537719760674e+01 1.3745091147739075e+00 0 0 0
2673 1 1.4203402456680525e+01 3.9930243661592961e+01 2.7947956088780015e+00 0 0 0
2672 1 1.5496757932651718e+01 4.1376512172450298e+01 1.2806989353613416e+00 0 0 0
3122 1 1.8509801884221062e+01 4.1476013652760109e+01 1.1597806269376196e+00 0 0 0
3123 1 1.7112942421959147e+01 4.0078520944437535e+01 2.7148177867264618e+00 0 0 0
3573 1 1.9923533491806829e+01 3.9902935506998212e+01 2.7217094594188604e+00 0 0 0
3572 1 2.1291361749398764e+01 4.1404607858164496e+01 1.2946791364420354e+00 0 0 0
3603 1 2.2780000877105838e+01 4.2820752372494823e+01 2.7220681453580755e+00 0 -1 0
4022 1 2.4280736650050837e+01 4.1280423705501391e+01 1.3892467744091770e+00 0 0 0
4023 1 2.2795613053941580e+01 4.0075159574008055e+01 2.8973011888656011e+00 0 0 0
4053 1 2.5781158024978609e+01 4.2716148129711378e+01 2.5930664536018293e+00 0 -1 0
4472 1 2.7252185679122665e+01 4.1396456665800613e+01 1.2668879844080578e+00 0 0 0
4473 1 2.5644221566877171e+01 3.9962959531992396e+01 2.8227907404772550e+00 0 0 0
4 1 1.4151447307355491e+00 1.4820951391290387e+00 4.2176961981270464e+00 0 0 0
485 1 2.8830453131235307e+00 2.8384579878934244e+00 5.7760042342879698e+00 0 0 0
455 1 2.8478784226649179e+00 2.6064525953074735e-02 5.6216165246871688e+00 0 0 0
454 1 4.3007405739248963e+00 1.3466570436812308e+00 4.3211836836862352e+00 0 0 0
935 1 5.5737822893902758e+00 2.7953854010413823e+00 5.7696613887458650e+00 0 0 0
904 1 7.0768852222094898e+00 1.3780986416246108e+00 4.3038959989763717e+00 0 0 0
1385 1 8.3385106691853377e+00 2.7331719991203043e+00 5.7975137308292979e+00 0 0 0
1355 1 8.3800527939223475e+00 8.2785369670645509e-02 5.7071031471964693e+00 0 0 0
1354 1 9.8473024929187769e+00 1.4618376165674454e+00 4.2328010467668422e+00 0 0 0
1835 1 1.1159610941171339e+01 2.8699633525853918e+00 5.5732886653810718e+00 0 0 0
1804 1 1.2543402073737237e+01 1.5579109428526405e+00 3.9940666216651883e+00 0 0 0
2285 1 1.4129724064232697e+01 3.0483911255710328e+00 5.5979105106280365e+00 0 0 0
2224 1 1.3644196487202271e+01 1.2181833129024884e-01 5.3273269760190489e+00 0 1 0
2254 1 1.5516028251680554e+01 1.3371103941246649e+00 4.1798547947958813e+00 0 0 0
2704 1 1.8613949547122989e+01 1.4386183630170948e+00 4.0596120197432732e+00 0 0 0
2735 1 1.7006304331273913e+01 2.9531925283640303e+00 5.6160136124811419e+00 0 0 0
2705 1 1.7225612297306835e+01 1.3380718204645461e-01 5.4515353620587748e+00 0 0 0
3185 1 1.9968665928865548e+01 2.8091086240360781e+00 5.6536725394489453e+00 0 0 0
3154 1 2.1364628106186323e+01 1.5188932381207343e+00 4.1528712713121623e+00 0 0 0