LAMMPS data file via write_data, version 7 Aug 2019, timestep = 28000

9000 atoms
1 atom types

-1.2454929418246455e-04 5.7106124549294186e+01 xlo xhi
-9.3411970636848420e-05 4.2829593411970642e+01 ylo yhi
-9.3411970636848420e-05 4.2829593411970642e+01 zlo zhi

Masses

1 56

Atoms # atomic

2 1 1.5128099832711306e+00 1.4918421028044773e+00 1.7146374984167996e+00 0 0 0
483 1 2.8216114549295384e+00 2.8965901597950379e+00 2.9489771197830539e+00 0 0 0
453 1 2.8295711171457860e+00 6.1682450076335479e-02 2.8825339222079949e+00 0 0 0
451 1 2.9464888084453684e+00 2.1330861500863985e-01 1.8504747386396198e-01 0 0 0
1 1 1.2831707827633701e-01 2.2050817062133954e-01 2.0524171035168587e-01 0 0 0
481 1 2.8096280256609290e+00 3.0501135695182486e+00 1.5837484806266861e-01 0 0 0
31 1 1.5534877337237527e-01 2.7956857920554019e+00 2.4576273679156899e-01 0 0 0
452 1 4.2447534204809676e+00 1.6060387137185155e+00 1.6484186467809112e+00 0 0 0
933 1 5.8096117316500377e+00 3.0117989464476063e+00 2.8889528357471224e+00 0 0 0
903 1 5.6402512901730164e+00 5.7794441171640315e-02 2.8626491306369037e+00 0 0 0
901 1 5.6047825461463647e+00 1.3712159436952598e-01 2.2378741843783700e-01 0 0 0
931 1 5.6813994107256089e+00 3.0758888408145899e+00 3.0879855012390350e-01 0 0 0
902 1 7.0905944034504067e+00 1.4079205987781951e+00 1.4706640753494638e+00 0 0 0
1383 1 8.3472686703120083e+00 2.8524843896657477e+00 2.9099794842769415e+00 0 0 0
1351 1 8.4058383728363690e+00 2.6780019320135295e-02 7.1814110358808136e-02 0 0 0
1381 1 8.4008014500403814e+00 2.9659642807101836e+00 2.2764073234660771e-03 0 0 0
1352 1 9.8935631386234615e+00 1.5564765716593152e+00 1.3975314977501794e+00 0 0 0
1833 1 1.1312623495920899e+01 3.0616981453552738e+00 2.8276184026092617e+00 0 0 0
1803 1 1.1258410448674873e+01 1.0194498460713404e-01 2.9051544369041702e+00 0 0 0
1831 1 1.1393722399603311e+01 2.8438878417049298e+00 2.6537489818515780e-02 0 0 0
1802 1 1.2671085951457380e+01 1.4879053858496845e+00 1.4513062014725555e+00 0 0 0
2283 1 1.4108831334766188e+01 2.9061028473351107e+00 2.8455376376216512e+00 0 0 0
2253 1 1.4024176364268888e+01 4.5640864146283926e-02 2.8365071084097329e+00 0 0 0
2252 1 1.5650943670410506e+01 1.5934354047434891e+00 1.5078596248876286e+00 0 0 0
2281 1 1.4239145985201217e+01 2.9731697499235854e+00 1.6823337852969220e-01 0 0 0
2702 1 1.8269973704529697e+01 1.5253678703548146e+00 1.4015647312268751e+00 0 0 0
2733 1 1.6957811829438029e+01 3.0068234921342993e+00 2.9063265619758605e+00 0 0 0
2703 1 1.6914716969540962e+01 1.0419184875214427e-01 2.9404141822378507e+00 0 0 0
2701 1 1.6924713358069059e+01 1.8097339446636179e-01 6.7293182336439477e-03 0 0 0
3183 1 1.9735093701337412e+01 2.8831961088110805e+00 2.7994887306080356e+00 0 0 0
3152 1 2.1204678111535635e+01 1.5491826224758667e+00 1.3827186950431891e+00 0 0 0
3153 1 1.9695396205972003e+01 5.8240120615782834e-02 2.8377930157659268e+00 0 0 0
3151 1 1.9927616060169374e+01 6.2043315062418003e-02 2.0256348075092256e-02 0 0 0
3181 1 1.9725824714396090e+01 2.9086309596427604e+00 1.2532954492481561e-02 0 0 0
3602 1 2.4160035795412721e+01 1.5657127036929572e+00 1.4858522154499845e+00 0 0 0
3633 1 2.2632401384929292e+01 2.9468860471602469e+00 2.9331944810924573e+00 0 0 0
3603 1 2.2741351466940920e+01 1.4248002740927246e-01 2.8437897420229334e+00 0 0 0
3631 1 2.2691554642684121e+01 2.9741955704360810e+00 4.2905053112307946e-02 0 0 0
4052 1 2.7134224214996991e+01 1.5553557536258478e+00 1.4279226230911932e+00 0 0 0
4083 1 2.5676023671224574e+01 3.0259115946246515e+00 2.8124874050567876e+00 0 0 0
4053 1 2.5657867537829862e+01 1.3237464317022093e-01 2.8269614311224380e+00 0 0 0
4081 1 2.5723064557144621e+01 3.0362336405315049e+00 1.1623671166210979e-01 0 0 0
4051 1 2.5565076882511274e+01 1.3943588417522829e-01 1.6764828625572749e-02 0 0 0
4501 1 2.8529242568376855e+01 4.1239157782617476e-02 5.7131788462248555e-02 0 0 0
32 1 1.3735451610615206e+00 4.4030791107538336e+00 1.6263834609366825e+00 0 0 0
513 1 2.9632793519681062e+00 5.9100013527504611e+00 2.8093971629476409e+00 0 0 0
511 1 2.7723687873361529e+00 5.8813071808176183e+00 2.0203615929326586e-02 0 0 0
63 1 2.4201317299393565e-02 5.8827374030283517e+00 2.9442676188313084e+00 0 0 0
482 1 4.1881393344567286e+00 4.4203010023653171e+00 1.4634953302159077e+00 0 0 0
963 1 5.6506066346094785e+00 5.9919820939004467e+00 2.9094100703399808e+00 0 0 0
961 1 5.6268828790061098e+00 5.7186277863915542e+00 1.0009064172990918e-02 0 0 0
932 1 7.1546476299442867e+00 4.4433986655494708e+00 1.5898940330460125e+00 0 0 0
1413 1 8.3782050065061231e+00 5.9501123063509596e+00 2.7473986523657135e+00 0 0 0
1411 1 8.4670097161572286e+00 5.7753456508211389e+00 1.0512190874145233e-02 0 0 0
1382 1 9.8131171884980297e+00 4.2705652762600561e+00 1.4503359776574918e+00 0 0 0
1863 1 1.1297321869348218e+01 5.7637078732456626e+00 2.7915553237661346e+00 0 0 0
1861 1 1.1262326734415042e+01 5.7556369222273700e+00 1.5756011528733219e-01 0 0 0
1832 1 1.2799875104825002e+01 4.4101972217329131e+00 1.5345068590169528e+00 0 0 0
2313 1 1.4164101397486686e+01 5.7524786581976191e+00 2.8821771022443587e+00 0 0 0
2282 1 1.5568605999333167e+01 4.3170621981011168e+00 1.5324923768129859e+00 0 0 0
2732 1 1.8473156453242272e+01 4.4623153376345783e+00 1.4172636308313094e+00 0 0 0
2763 1 1.6880766427900220e+01 5.7642435174379587e+00 2.6828417361305412e+00 0 0 0
2761 1 1.6886427728776013e+01 5.8388426033305665e+00 1.8842283448161207e-02 0 0 0
3213 1 1.9848337829370330e+01 5.7726839371463532e+00 2.8309232260312216e+00 0 0 0
3182 1 2.1312200771282019e+01 4.2243383281172449e+00 1.4066876814372480e+00 0 0 0
3632 1 2.4160115989603746e+01 4.3282209944399233e+00 1.3034270762737237e+00 0 0 0
3663 1 2.2711331558999550e+01 5.7697608294025384e+00 2.7558190862922118e+00 0 0 0
3661 1 2.2726128821659962e+01 5.6559154863842407e+00 3.3446983151797838e-02 0 0 0
4082 1 2.6983907555616948e+01 4.4415323113987508e+00 1.4060580773911193e+00 0 0 0
4113 1 2.5535827926346041e+01 5.8251739143481815e+00 2.8727748876558930e+00 0 0 0
4111 1 2.5550428126843098e+01 5.8710522879495688e+00 1.8636255873454785e-02 0 0 0
4563 1 2.8551951214343983e+01 5.7488115083720173e+00 2.8278673220345549e+00 0 0 0
4561 1 2.8471128592822463e+01 5.8723600487627472e+00 1.1870503648754679e-01 0 0 0
62 1 1.3467955766707864e+00 7.1864607045394946e+00 1.5050965131904936e+00 0 0 0
543 1 2.8029370208252642e+00 8.6046044153840811e+00 2.8269040448216822e+00 0 0 0
541 1 2.8927370391638583e+00 8.4878545700935586e+00 1.5587048184293906e-02 0 0 0
93 1 3.7078760962977242e-02 8.6922893448231306e+00 3.0006668661057398e+00 0 0 0
91 1 3.5474225799013936e-02 8.5124599908963781e+00 1.3746162526283287e-01 0 0 0
512 1 4.2353090698170117e+00 7.1827617080661925e+00 1.3400140966758776e+00 0 0 0
993 1 5.7140188914300776e+00 8.5486498995877849e+00 2.8589796311721432e+00 0 0 0
542 1 4.3568759455575385e+00 9.8355587170563421e+00 1.1840309000215239e+00 0 0 0
962 1 7.1300438153909784e+00 6.9942439222785664e+00 1.2901954241059941e+00 0 0 0
1443 1 8.6419474269165129e+00 8.5818441087200750e+00 2.6897820125958827e+00 0 0 0
1441 1 8.4438251090569132e+00 8.5553965141527577e+00 1.2103288765423770e-02 0 0 0
1412 1 1.0032626361848980e+01 7.2195636718250240e+00 1.4422196393576223e+00 0 0 0
1893 1 1.1495679331397998e+01 8.5545898072807098e+00 2.9347328927415726e+00 0 0 0
1891 1 1.1422588572380825e+01 8.6818599266137344e+00 8.0149011869949022e-02 0 0 0
1862 1 1.2872657329632913e+01 7.1550713789269267e+00 1.3718944601171736e+00 0 0 0
2343 1 1.4333035590111470e+01 8.6521673008708539e+00 2.8547162725360735e+00 0 0 0
2312 1 1.5548571989943769e+01 7.2935044871159675e+00 1.4580882489116025e+00 0 0 0
2762 1 1.8367363606182781e+01 7.1965082661076325e+00 1.4238886180795507e+00 0 0 0
2793 1 1.6940724918776045e+01 8.5364275480423935e+00 2.8857250331949231e+00 0 0 0
2791 1 1.7005409091842775e+01 8.5858382999662126e+00 3.9938997492910744e-02 0 0 0
3212 1 2.1405961386256234e+01 7.0440240301804113e+00 1.3455216527548850e+00 0 0 0
3243 1 1.9850176004364517e+01 8.5911972313395353e+00 2.8565259658698610e+00 0 0 0
3662 1 2.4039609739009816e+01 7.2262120546257460e+00 1.4112815434763908e+00 0 0 0
3693 1 2.2697592212525340e+01 8.4341863656798548e+00 2.8745020236746419e+00 0 0 0
4143 1 2.5651752215372166e+01 8.6670816234586052e+00 2.8902362432746687e+00 0 0 0
4112 1 2.7008040443300555e+01 7.2084738214106503e+00 1.4639988761305727e+00 0 0 0
4141 1 2.5639174027801584e+01 8.6225622451745885e+00 4.6601099732086058e-02 0 0 0
4593 1 2.8421988771823155e+01 8.5728731286913487e+00 2.9460718124379404e+00 0 0 0
4591 1 2.8411598547596114e+01 8.6781516994780752e+00 1.2768129144808854e-01 0 0 0
92 1 1.3446264461557118e+00 1.0007587727391400e+01 1.4104752416366078e+00 0 0 0
122 1 1.6553429498042560e+00 1.2665311249128141e+01 1.2469550982544222e+00 0 0 0
571 1 3.1716438454241298e+00 1.1048255749937086e+01 2.6462427824239181e+00 0 0 0
123 1 2.0163159819099574e-01 1.1545117678212076e+01 2.9705285623582856e+00 0 0 0
121 1 2.0266742478447952e-02 1.1347081040418834e+01 6.8674600903335659e-03 0 0 0
1023 1 5.6066698337259684e+00 1.1283833147089016e+01 2.7117075889205551e+00 0 0 0
572 1 4.2875621993660644e+00 1.2830425973361738e+01 1.2996671143180525e+00 0 0 0
992 1 7.0885688773895641e+00 9.9227241067573946e+00 1.3149446914219014e+00 0 0 0
1473 1 8.5678667209051280e+00 1.1410829803101485e+01 2.8257814719703647e+00 0 0 0
1022 1 7.1290749594946989e+00 1.2856800977023953e+01 1.3803468778164130e+00 0 0 0
1471 1 8.4344357758207025e+00 1.1504574946012783e+01 2.5223499662895960e-02 0 0 0
1442 1 9.9807137064278741e+00 1.0016541272754610e+01 1.3546530447206080e+00 0 0 0
1923 1 1.1323687027497924e+01 1.1457428193321418e+01 2.7976517116566231e+00 0 0 0
1472 1 9.9716183677752497e+00 1.2931245622336199e+01 1.3573082465248574e+00 0 0 0
1892 1 1.2869331586547821e+01 1.0196335106017845e+01 1.3323245840673916e+00 0 0 0
1922 1 1.2730906116252338e+01 1.2901631480188485e+01 1.3910195776714562e+00 0 0 0
2373 1 1.4322099224347523e+01 1.1497494026371809e+01 2.8784291756426241e+00 0 0 0
2372 1 1.5591148249173886e+01 1.2968789872112579e+01 1.3453177724655787e+00 0 0 0
2342 1 1.5730290819755172e+01 1.0106035822105046e+01 1.4128323794436424e+00 0 0 0
2792 1 1.8344120777601088e+01 1.0021664201269678e+01 1.4493660511711444e+00 0 0 0
2823 1 1.6985467977729812e+01 1.1511872528641574e+01 2.7983365340303035e+00 0 0 0
2822 1 1.8453408605158501e+01 1.2621111799028807e+01 1.3833131290344609e+00 0 0 0
3242 1 2.1474328731383682e+01 9.9491008529583436e+00 1.4747090023777942e+00 0 0 0
3273 1 1.9841196005214172e+01 1.1257040033082946e+01 2.7992023431558017e+00 0 0 0
3272 1 2.1364191446843638e+01 1.2752414873750501e+01 1.4697394218899449e+00 0 0 0
3271 1 1.9880155851716971e+01 1.1381412450321635e+01 3.6189714270292939e-02 0 0 0
3692 1 2.4238839890096099e+01 1.0108744276998589e+01 1.6072506337614882e+00 0 0 0
3723 1 2.2687203394117066e+01 1.1438069323435540e+01 2.9179565067087743e+00 0 0 0
3722 1 2.4128419851544542e+01 1.2952146149651655e+01 1.5070505406666885e+00 0 0 0
3721 1 2.2785732166125051e+01 1.1395086872981643e+01 2.7114574521263455e-02 0 0 0
4142 1 2.7074953650919451e+01 1.0035935232075930e+01 1.4179888610616267e+00 0 0 0
4173 1 2.5654985588973695e+01 1.1485611043886385e+01 2.9078597161098965e+00 0 0 0
4172 1 2.7087303760709379e+01 1.2927338516157826e+01 1.5332671714353627e+00 0 0 0
4171 1 2.5494399537096417e+01 1.1449917460123094e+01 7.6341519843876431e-03 0 0 0
4623 1 2.8519440266180645e+01 1.1346771586499308e+01 2.7959511873615748e+00 0 0 0
603 1 2.9868874053141128e+00 1.4535487346472536e+01 2.6555937883510548e+00 0 0 0
152 1 1.4765523162096874e+00 1.5628789487027490e+01 1.3143910920636470e+00 0 0 0
153 1 1.6045583393728438e-01 1.4112626162369789e+01 2.8639353357855049e+00 0 0 0
602 1 4.4650890914371804e+00 1.5749403489189126e+01 1.2374730564270893e+00 0 0 0
1053 1 5.6712314679194158e+00 1.4348587231101902e+01 2.7242462313597584e+00 0 0 0
1503 1 8.3958295445257711e+00 1.4394709334887473e+01 2.5631687904637581e+00 0 0 0
1052 1 6.9101527548023212e+00 1.5858968566255575e+01 1.2667638954863421e+00 0 0 0
1953 1 1.1323277003135990e+01 1.4328226078956355e+01 2.7758429304182646e+00 0 0 0
1502 1 9.8577155705996145e+00 1.5704911252120874e+01 1.2535755856337170e+00 0 0 0
1951 1 1.1456714341377484e+01 1.4322071392345867e+01 3.2717663402027287e-02 0 0 0
1952 1 1.2781721204771253e+01 1.5654244537755337e+01 1.4018928994697866e+00 0 0 0
2403 1 1.4191395808862096e+01 1.4303705463826583e+01 2.8027228001656583e+00 0 0 0
2402 1 1.5619227007178090e+01 1.5678551594157767e+01 1.4743466861531220e+00 0 0 0
2853 1 1.7031054309738174e+01 1.4374550052093761e+01 2.7893779383041650e+00 0 0 0
2852 1 1.8500768204708361e+01 1.5578618567569146e+01 1.2369648379205789e+00 0 0 0
3303 1 1.9727647152637402e+01 1.4139546391879570e+01 2.7985488727533472e+00 0 0 0
3302 1 2.1272024247479717e+01 1.5522781709560823e+01 1.5158417045962576e+00 0 0 0
3301 1 1.9857431568911959e+01 1.4117276818603139e+01 1.6569618806939701e-01 0 0 0
3753 1 2.2741343243391579e+01 1.4340970750294129e+01 2.9261932322335888e+00 0 0 0
3752 1 2.4198650325918191e+01 1.5697365973663016e+01 1.5752018466744264e+00 0 0 0
3751 1 2.2737906165123857e+01 1.4373604131173641e+01 1.2324647325074543e-01 0 0 0
4651 1 2.8527436465003035e+01 1.4109821726362533e+01 5.7128028364327510e-02 0 0 0
4201 1 2.5594150365408019e+01 1.4289812809499049e+01 1.5966848397887917e-01 0 0 0
4203 1 2.5526690401006849e+01 1.4295501324903597e+01 2.8145110170488259e+00 0 0 0
4202 1 2.7141815641346973e+01 1.5721336410820607e+01 1.4567400638363956e+00 0 0 0
4653 1 2.8472850626360934e+01 1.4221873171470248e+01 2.8559967971983529e+00 0 0 0
213 1 3.3990409817425279e-02 1.9727377137002545e+01 2.9090662178621480e+00 0 0 0
182 1 1.3692034069508234e+00 1.8301386799965687e+01 1.4262479964418342e+00 0 0 0
633 1 2.9039036693640363e+00 1.6941285496326714e+01 2.7832204687641355e+00 0 0 0
631 1 2.9212462381119582e+00 1.7094999782506900e+01 1.1813968437444089e-02 0 0 0
183 1 3.2373792956498448e-02 1.6875454572323591e+01 2.8596325084366865e+00 0 0 0
632 1 4.3123924416854962e+00 1.8411343749587079e+01 1.3576889327563388e+00 0 0 0
1083 1 5.6883046756507865e+00 1.7174038244474904e+01 2.7146430078350936e+00 0 0 0
1082 1 7.1164531227101415e+00 1.8482559545298745e+01 1.3640986572364819e+00 0 0 0
1533 1 8.4868637361125323e+00 1.7194462770956317e+01 2.7400757832839182e+00 0 0 0
1532 1 9.7359210332987214e+00 1.8597569568704344e+01 1.3410094789471951e+00 0 0 0
1983 1 1.1265128434985499e+01 1.7020278149423277e+01 2.6584035303331421e+00 0 0 0
1982 1 1.2696097912227195e+01 1.8389564347868397e+01 1.3901349971704906e+00 0 0 0
2433 1 1.4220025201360588e+01 1.7052333623314691e+01 2.8929495677682415e+00 0 0 0
2432 1 1.5504375801307294e+01 1.8494733101435756e+01 1.5328602173110728e+00 0 0 0
2431 1 1.4141095831449999e+01 1.7041350202244953e+01 3.9815315575854313e-02 0 0 0
2882 1 1.8232590387461293e+01 1.8478494293736166e+01 1.5387176684407762e+00 0 0 0
2883 1 1.7047159721156987e+01 1.7130273269847354e+01 2.8410456661492574e+00 0 0 0
2881 1 1.6966211049000666e+01 1.6968762968210477e+01 7.0660430529393636e-02 0 0 0
3333 1 1.9732697073487252e+01 1.7037421323970687e+01 2.8617786294496423e+00 0 0 0
3332 1 2.1186244815127459e+01 1.8486516069850772e+01 1.5474907815819745e+00 0 0 0
3331 1 1.9833674024345054e+01 1.7085009126081843e+01 1.2167158261815940e-01 0 0 0
3782 1 2.4199795890981914e+01 1.8482799214780872e+01 1.5893546694372882e+00 0 0 0
3783 1 2.2586820831501200e+01 1.7007400086890492e+01 2.9985888969506753e+00 0 0 0
3781 1 2.2514411881650243e+01 1.7131349163411741e+01 2.1070905695715986e-01 0 0 0
4233 1 2.5839458331160245e+01 1.7223766899964044e+01 2.7165749130412578e+00 0 0 0
4232 1 2.7158754647436144e+01 1.8560844923039081e+01 1.3741126963259318e+00 0 0 0
4231 1 2.5677807345908334e+01 1.7030159866089612e+01 2.0013533584010329e-01 0 0 0
663 1 2.8858730417470935e+00 1.9958677883676312e+01 2.7616631716423408e+00 0 0 0
212 1 1.3983312827654142e+00 2.1347681634607621e+01 1.5988414513575184e+00 0 0 0
693 1 2.9127621201935754e+00 2.2588359745532529e+01 2.9003062286741681e+00 0 0 0
661 1 2.9019851039296243e+00 1.9798400296228436e+01 2.0818409205262306e-01 0 0 0
691 1 2.8889927424389321e+00 2.2720358673281670e+01 1.6588104304166904e-01 0 0 0
241 1 1.2793801773198510e-01 2.2662951975626559e+01 1.0852670323954293e-01 0 0 0
1113 1 5.6681716873471437e+00 1.9789835016766840e+01 2.6539655245845464e+00 0 0 0
662 1 4.3191191042536063e+00 2.1294013276858266e+01 1.5446151768358765e+00 0 0 0
1143 1 5.6447448932544244e+00 2.2779113350562159e+01 2.7693043032263067e+00 0 0 0
1111 1 5.7307942274150516e+00 1.9969084739435928e+01 2.5602613950895123e-02 0 0 0
1563 1 8.4079956038616661e+00 1.9891716602741777e+01 2.7863587027054102e+00 0 0 0
1112 1 7.1318172413781280e+00 2.1397551992557695e+01 1.4975935222178836e+00 0 0 0
1593 1 8.4234271729850327e+00 2.2890249319412057e+01 2.6448293455701712e+00 0 0 0
1562 1 9.7701769707734414e+00 2.1323314928585386e+01 1.3127222339524067e+00 0 0 0
2013 1 1.1303543904833633e+01 1.9888374370442033e+01 2.6176286594072078e+00 0 0 0
2043 1 1.1162264373376928e+01 2.2757901614817833e+01 2.6860331793717696e+00 0 0 0
2012 1 1.2693064874592212e+01 2.1501345001173831e+01 1.4207764860247072e+00 0 0 0
2463 1 1.4047370410622106e+01 1.9941335252350513e+01 2.8532828545375848e+00 0 0 0
2462 1 1.5429663376398908e+01 2.1395212801640014e+01 1.3683864645878361e+00 0 0 0
2493 1 1.4256639322864066e+01 2.2903174231397408e+01 2.7752767206711617e+00 0 0 0
2461 1 1.4140042096100654e+01 1.9926133043758121e+01 4.2055530351429338e-02 0 0 0
2912 1 1.8448624791143128e+01 2.1459620055754769e+01 1.2989201569098141e+00 0 0 0
2913 1 1.6897700902757204e+01 1.9983243550153812e+01 2.7925636883449543e+00 0 0 0
2943 1 1.7174095616030801e+01 2.2782479128230502e+01 2.8022913371201477e+00 0 0 0
2911 1 1.6875332834970560e+01 1.9845939521258174e+01 1.0009065108109856e-01 0 0 0
3363 1 1.9693018522236347e+01 2.0013948579202967e+01 2.8251139374284042e+00 0 0 0
3362 1 2.1192312279543259e+01 2.1320551115436583e+01 1.2985200263727534e+00 0 0 0
3393 1 1.9957945533974307e+01 2.2704259868675624e+01 2.6880211293534293e+00 0 0 0
3361 1 1.9773434116729089e+01 1.9858728703806189e+01 7.1241367848808398e-02 0 0 0
3813 1 2.2818839633236976e+01 2.0022951721637437e+01 2.6961095513437185e+00 0 0 0
3812 1 2.4161264785766075e+01 2.1413935466520790e+01 1.3632947394103518e+00 0 0 0
3843 1 2.2693432583212186e+01 2.2830544955672455e+01 2.7585164766205863e+00 0 0 0
3841 1 2.2740045649891936e+01 2.2859482072785731e+01 6.0732198316911810e-02 0 0 0
3811 1 2.2817368348734771e+01 1.9818683693162637e+01 1.6153028329457345e-01 0 0 0
4263 1 2.5696713439262723e+01 2.0062913900574213e+01 2.7295668110017677e+00 0 0 0
4262 1 2.7140066223765835e+01 2.1423217135342608e+01 1.4244538171905590e+00 0 0 0
4293 1 2.5570566824988312e+01 2.2740871616361328e+01 2.8255460894356426e+00 0 0 0
4291 1 2.5624326701632679e+01 2.2799468862645892e+01 1.6129507173218371e-02 0 0 0
4261 1 2.5557772461455919e+01 1.9832149085210194e+01 7.8201456026996893e-02 0 0 0
4741 1 2.8524314942203983e+01 2.2830470485250771e+01 7.3144247685291930e-02 0 0 0
4743 1 2.8391709199613025e+01 2.2680061384921579e+01 2.8397751524555646e+00 0 0 0
4713 1 2.8478319096419625e+01 2.0034389688423431e+01 2.8037710257947990e+00 0 0 0
242 1 1.3940160737098806e+00 2.4128555093163804e+01 1.6945749427651478e+00 0 0 0
723 1 2.8220059412812293e+00 2.5623257522454736e+01 2.8313320721318420e+00 0 0 0
721 1 2.7362887168171772e+00 2.5683796749300154e+01 9.0577075339841981e-02 0 0 0
271 1 8.4074551839458580e-03 2.5489768863320833e+01 1.8211709372130802e-01 0 0 0
692 1 4.1950231379646912e+00 2.4302091193846376e+01 1.4575978083555239e+00 0 0 0
1173 1 5.6315583723465181e+00 2.5616220965908997e+01 2.7913102009646984e+00 0 0 0
1142 1 7.1259977421080052e+00 2.4257457333946761e+01 1.2053568153628362e+00 0 0 0
1623 1 8.4379493729321418e+00 2.5607918097848486e+01 2.8266889800983375e+00 0 0 0
1592 1 1.0001148327886190e+01 2.4312501942385442e+01 1.4238526455064797e+00 0 0 0
2073 1 1.1329218026913841e+01 2.5803884179833616e+01 2.7927168057352776e+00 0 0 0
2042 1 1.2858753970283216e+01 2.4294017643795485e+01 1.3214721844723099e+00 0 0 0
2523 1 1.4256986073098197e+01 2.5784678429072301e+01 2.8852557523803899e+00 0 0 0
2492 1 1.5546799115905676e+01 2.4253514758141389e+01 1.2962518928936257e+00 0 0 0
2942 1 1.8504358851196915e+01 2.4429760089945109e+01 1.2680703665208990e+00 0 0 0
2973 1 1.6984031154456385e+01 2.5642982222075165e+01 2.7991013844761978e+00 0 0 0
3423 1 1.9767348272817522e+01 2.5580341981299995e+01 2.8802587213384832e+00 0 0 0
3392 1 2.1261324763103627e+01 2.4284980702400691e+01 1.3662869199253915e+00 0 0 0
3842 1 2.4053752108199657e+01 2.4271495691930678e+01 1.3910851281473831e+00 0 0 0
3873 1 2.2726749451091639e+01 2.5650262802441596e+01 2.9408048358857313e+00 0 0 0
3871 1 2.2782804441812786e+01 2.5665778275455324e+01 7.2611472183168407e-02 0 0 0
4292 1 2.6993747317139938e+01 2.4224176497419240e+01 1.4716889050681734e+00 0 0 0
4323 1 2.5616273661899069e+01 2.5736704952058233e+01 2.9280476999880056e+00 0 0 0
4773 1 2.8424335263773703e+01 2.5456807242511132e+01 2.8056651573154907e+00 0 0 0
4771 1 2.8453353605891127e+01 2.5451527326911204e+01 4.4923195274559798e-02 0 0 0
272 1 1.3847827370731023e+00 2.6970982034944100e+01 1.4102655803009922e+00 0 0 0
753 1 2.7890876503170166e+00 2.8453469375436601e+01 2.7879522867398165e+00 0 0 0
751 1 2.8363164028651848e+00 2.8577738254535507e+01 8.5706872139015441e-02 0 0 0
303 1 8.2334025101765462e-02 2.8398473560318251e+01 2.9413081339795553e+00 0 0 0
722 1 4.2795112241248541e+00 2.7161174425987099e+01 1.3730808049022369e+00 0 0 0
1203 1 5.6689357137728242e+00 2.8525862997376301e+01 2.6569440898762573e+00 0 0 0
1172 1 7.0219800726965982e+00 2.6996412434381337e+01 1.4119122530471699e+00 0 0 0
1653 1 8.4904181405708652e+00 2.8466421856723091e+01 2.8069017116131199e+00 0 0 0
1622 1 9.9097311005284894e+00 2.7121718194245858e+01 1.4722970731205904e+00 0 0 0
2103 1 1.1367040362299209e+01 2.8545081734451649e+01 2.9490852374292191e+00 0 0 0
2072 1 1.2837382695762450e+01 2.7006355924562051e+01 1.4442512061789916e+00 0 0 0
2553 1 1.4239584339224052e+01 2.8488369610859792e+01 2.8024060918321454e+00 0 0 0
2522 1 1.5632832065531563e+01 2.7151190139781146e+01 1.3833821109197630e+00 0 0 0
2972 1 1.8472067891955103e+01 2.7083477223024328e+01 1.4751977815567372e+00 0 0 0
3003 1 1.7022915903318403e+01 2.8477601454592708e+01 2.8301223333534962e+00 0 0 0
3422 1 2.1343320192690495e+01 2.7114282789529589e+01 1.6544248919465501e+00 0 0 0
3453 1 1.9719624246860199e+01 2.8459896145358424e+01 2.9010471686719099e+00 0 0 0
3872 1 2.4157492753126899e+01 2.7097218023707683e+01 1.5480932061372368e+00 0 0 0
3903 1 2.2791937335210726e+01 2.8547981197314964e+01 2.8704154231162997e+00 0 0 0
4322 1 2.6973262920407109e+01 2.6969689350604789e+01 1.3499527695361524e+00 0 0 0
4353 1 2.5526623458849368e+01 2.8575377647794379e+01 2.8259386420595414e+00 0 0 0
4351 1 2.5436230112337547e+01 2.8598827445517482e+01 2.9563238721628693e-02 0 0 0
4801 1 2.8438715261791639e+01 2.8561393642847083e+01 1.0471512145823425e-01 0 0 0
4803 1 2.8372430914557931e+01 2.8482643935519924e+01 2.8322570304191741e+00 0 0 0
302 1 1.3060449990103760e+00 2.9844355332957427e+01 1.4941293547714543e+00 0 0 0
783 1 2.7971480329516725e+00 3.1245310965338341e+01 2.8240217460922525e+00 0 0 0
332 1 1.3717864145974763e+00 3.2772453730425141e+01 1.6478196553458804e+00 0 0 0
781 1 2.7839080875130313e+00 3.1323126931259377e+01 7.8714732619735453e-02 0 0 0
331 1 6.9487861362276249e-03 3.1307377013162185e+01 2.4192343436905503e-01 0 0 0
752 1 4.3087713642842020e+00 3.0031434275446792e+01 1.4534697386460027e+00 0 0 0
782 1 4.2062623473863177e+00 3.2786754765824966e+01 1.4689720844752547e+00 0 0 0
1233 1 5.7672292760684503e+00 3.1377768387232528e+01 2.8119550813142502e+00 0 0 0
1231 1 5.6757414142159304e+00 3.1346473451287824e+01 8.9186202454061350e-02 0 0 0
1202 1 7.0544094308100185e+00 2.9930595863601489e+01 1.3614553466755213e+00 0 0 0
1232 1 7.0701283203063365e+00 3.2842455995413772e+01 1.3981199079705624e+00 0 0 0
1683 1 8.3767380611023921e+00 3.1193782447441215e+01 2.7972107131095898e+00 0 0 0
1681 1 8.2940408651157078e+00 3.1423882782698282e+01 2.9100608096777895e-02 0 0 0
1652 1 1.0021569366012761e+01 2.9852116161600758e+01 1.5178040801767949e+00 0 0 0
2133 1 1.1460655245521222e+01 3.1366148265207897e+01 2.8809523905859851e+00 0 0 0
1682 1 9.8051214554866828e+00 3.2804558710229173e+01 1.4238778066855773e+00 0 0 0
2131 1 1.1294020279742620e+01 3.1313986621422462e+01 1.3881949539289451e-02 0 0 0
2102 1 1.2696795967123037e+01 2.9823153296883017e+01 1.4314515347388237e+00 0 0 0
2132 1 1.2786187970459409e+01 3.2578401607577916e+01 1.2827592690467469e+00 0 0 0
2583 1 1.4287211194787801e+01 3.1398452474046422e+01 2.7049430918697936e+00 0 0 0
2552 1 1.5579633897716217e+01 2.9789184533642121e+01 1.3322371330519092e+00 0 0 0
2582 1 1.5740441219639614e+01 3.2842766731518253e+01 1.2035002299233686e+00 0 0 0
3002 1 1.8440985331980670e+01 2.9939341587892773e+01 1.3166994206084004e+00 0 0 0
3033 1 1.6971051282607778e+01 3.1215224219550279e+01 2.8076255569185888e+00 0 0 0
3032 1 1.8344757450635566e+01 3.2806523442781582e+01 1.3682575364184291e+00 0 0 0
3031 1 1.7134662329122637e+01 3.1383695660420255e+01 2.4938351850323670e-02 0 0 0
3452 1 2.1273733895416516e+01 2.9840339110076545e+01 1.3895480505426994e+00 0 0 0
3483 1 1.9855530360834674e+01 3.1434675546774237e+01 2.7265743227135948e+00 0 0 0
3482 1 2.1246608048911472e+01 3.2851964564263753e+01 1.1979054753239191e+00 0 0 0
3902 1 2.4109854824525598e+01 2.9924530770442470e+01 1.5150815836671936e+00 0 0 0
3933 1 2.2655321987617686e+01 3.1474648066459618e+01 2.7334679322823567e+00 0 0 0
3932 1 2.4124792243193628e+01 3.2733281360340584e+01 1.4093796973707973e+00 0 0 0
4352 1 2.6870622165376940e+01 2.9960286078928565e+01 1.4961446037105168e+00 0 0 0
4383 1 2.5428956623271574e+01 3.1244527433124560e+01 2.9319221159184923e+00 0 0 0
4382 1 2.6992207358555667e+01 3.2742512204696411e+01 1.4222953683291213e+00 0 0 0
4381 1 2.5568842108180618e+01 3.1422853612468149e+01 4.1747302707200618e-02 0 0 0
4831 1 2.8485378226189031e+01 3.1240348525063478e+01 5.9942181536327951e-02 0 0 0
4833 1 2.8494603121481408e+01 3.1231976108916403e+01 2.8929754651316517e+00 0 0 0
813 1 2.7380263255405426e+00 3.4232760383338245e+01 2.8703861917240263e+00 0 0 0
362 1 1.1665218438030682e+00 3.5622355497865769e+01 1.4770711687890488e+00 0 0 0
811 1 2.6722493805183247e+00 3.4176762329394506e+01 1.7488857680705094e-01 0 0 0
1263 1 5.6825613326290867e+00 3.4200139113996102e+01 2.7865667828497243e+00 0 0 0
812 1 4.1528219328895064e+00 3.5561477332844333e+01 1.4837395023506250e+00 0 0 0
1261 1 5.6450368374767077e+00 3.4228749618198805e+01 1.2669020121123090e-01 0 0 0
1713 1 8.4234218293260543e+00 3.4142611517436833e+01 2.9362117394494480e+00 0 0 0
1262 1 6.9896091471290731e+00 3.5719657136489857e+01 1.4744818036560272e+00 0 0 0
1711 1 8.5191630093793727e+00 3.4289284641004272e+01 1.1626476725981405e-01 0 0 0
2163 1 1.1335132569812437e+01 3.4123493790931207e+01 2.9550078543662681e+00 0 0 0
1712 1 9.9703273236043906e+00 3.5624094497902476e+01 1.4323479204073744e+00 0 0 0
2162 1 1.2647474152309600e+01 3.5663000949375842e+01 1.4608233099426842e+00 0 0 0
2161 1 1.1427500440556951e+01 3.4101994757871594e+01 1.2095591917296339e-02 0 0 0
2613 1 1.4126037795023860e+01 3.4183571884229636e+01 2.7061132702883688e+00 0 0 0
2612 1 1.5590961061416557e+01 3.5759632182435851e+01 1.4886076672040323e+00 0 0 0
2611 1 1.4181631625976854e+01 3.4331374856315236e+01 3.3001678962548908e-02 0 0 0
3063 1 1.6975291561875622e+01 3.4172177901132912e+01 2.7789980906263541e+00 0 0 0
3062 1 1.8338239674621509e+01 3.5683040672064266e+01 1.4387738690195857e+00 0 0 0
3513 1 1.9894355682947275e+01 3.4300945446090040e+01 2.8055267655369804e+00 0 0 0
3512 1 2.1164772982317444e+01 3.5675079159579226e+01 1.3880971843269483e+00 0 0 0
3963 1 2.2744224741399421e+01 3.4213922206581685e+01 2.6066709981611154e+00 0 0 0
3962 1 2.4197198600819579e+01 3.5662766998069330e+01 1.2927727212145355e+00 0 0 0
4413 1 2.5619072281890208e+01 3.4219937967229370e+01 2.7883778370756214e+00 0 0 0
4412 1 2.7094355439845707e+01 3.5656974040958275e+01 1.4317979859177230e+00 0 0 0
4861 1 2.8519672879213665e+01 3.4164373722626294e+01 3.6764118091809905e-03 0 0 0
4863 1 2.8513735828051715e+01 3.4227893954197185e+01 2.7076092171956305e+00 0 0 0
392 1 1.4374292667017681e+00 3.8591770844307732e+01 1.3962335878024335e+00 0 0 0
843 1 2.6839079230268110e+00 3.7086829053722653e+01 2.7436327506348359e+00 0 0 0
841 1 2.7938487027553514e+00 3.6952995621133454e+01 1.0929940554973976e-01 0 0 0
391 1 1.9213795331573635e-02 3.7077415628811693e+01 6.3244878577812358e-02 0 0 0
842 1 4.1281266677844926e+00 3.8532080837923843e+01 1.4854221506887457e+00 0 0 0
1293 1 5.4910195983358605e+00 3.7033528438658820e+01 2.8671178845532155e+00 0 0 0
1291 1 5.5195493562672269e+00 3.7069515671002662e+01 7.1792540537897135e-03 0 0 0
1292 1 7.0187989831962341e+00 3.8498443981357497e+01 1.4361750190638030e+00 0 0 0
1743 1 8.5510603745759344e+00 3.7038744592202647e+01 2.8027076778555244e+00 0 0 0
1741 1 8.5032783072387907e+00 3.6997873821999320e+01 1.3743506015717344e-01 0 0 0
1742 1 9.9573512865995522e+00 3.8531071727074462e+01 1.3575311542889923e+00 0 0 0
2193 1 1.1330096553005253e+01 3.7171188301349602e+01 2.8900478032285579e+00 0 0 0
2191 1 1.1453819593012007e+01 3.7130102267905016e+01 1.5464536069014106e-01 0 0 0
2192 1 1.2698350262164558e+01 3.8609492956751851e+01 1.5164384356532503e+00 0 0 0
2643 1 1.4190831805848974e+01 3.7120547001044926e+01 2.8717529951830696e+00 0 0 0
2642 1 1.5489679370654546e+01 3.8470436668294568e+01 1.4105553031968996e+00 0 0 0
3092 1 1.8550080194583796e+01 3.8626779033554314e+01 1.4793032334658174e+00 0 0 0
3093 1 1.7029234975665680e+01 3.7078735064823817e+01 2.8342720504119785e+00 0 0 0
3543 1 1.9777101622892474e+01 3.6938380664393051e+01 2.8693655482635423e+00 0 0 0