LAMMPS data file via write_data, version 7 Aug 2019, timestep = 29000

9000 atoms
1 atom types

-1.2454929418246455e-04 5.7106124549294186e+01 xlo xhi
-9.3411970636848420e-05 4.2829593411970642e+01 ylo yhi
-9.3411970636848420e-05 4.2829593411970642e+01 zlo zhi

Masses

1 56

Atoms # atomic

2 1 1.4881280714225853e+00 1.3504115271010448e+00 1.5994408768809176e+00 0 0 0
483 1 2.8199672594634904e+00 2.7037729451466066e+00 2.8455062760961791e+00 0 0 0
31 1 4.1186076378481422e-02 2.7446137013094360e+00 5.7155697069630806e-02 0 0 0
1 1 5.1416073935520324e-03 4.3672845797068760e-02 9.4192829360444819e-02 0 0 0
451 1 2.9133594533493818e+00 1.1218780163267619e-02 1.4926907822572133e-01 0 0 0
481 1 2.6383780573640916e+00 2.8176310068965194e+00 8.0571417087428807e-03 0 0 0
33 1 4.4590888176252008e-02 2.7967274763933032e+00 2.8811526209088854e+00 0 0 0
452 1 4.2660810133242499e+00 1.4240629702708270e+00 1.4204637269193550e+00 0 0 0
933 1 5.8067206733690444e+00 2.8724166794954411e+00 2.9381859207764909e+00 0 0 0
903 1 5.7973316375717676e+00 1.4953342330629582e-01 2.9778765269051153e+00 0 0 0
931 1 5.6747007141776402e+00 2.9257660801705758e+00 1.0676257775151754e-01 0 0 0
902 1 7.0804250135899132e+00 1.4285314412723282e+00 1.3240850852158843e+00 0 0 0
1383 1 8.6026790914865359e+00 2.7592523213600031e+00 2.8477989792337071e+00 0 0 0
1353 1 8.7284450999908643e+00 8.0075855832677165e-02 2.8986310610573529e+00 0 0 0
1381 1 8.7129354092113118e+00 2.8034434918272182e+00 5.7666767859124946e-02 0 0 0
1352 1 1.0125562105459467e+01 1.5109506144799176e+00 1.4200071572943147e+00 0 0 0
1833 1 1.1396884791818996e+01 2.8570468167202008e+00 3.0260680770517663e+00 0 0 0
1831 1 1.1524299978240901e+01 2.8462748560387872e+00 5.2283672476242771e-02 0 0 0
1803 1 1.1505687461721585e+01 1.1092065370954884e-01 2.9843117869930551e+00 0 0 0
1801 1 1.1438438823090474e+01 3.9466903689323374e-02 4.7532960767900844e-03 0 0 0
1802 1 1.2896984814746839e+01 1.4166344859706823e+00 1.5467117329189792e+00 0 0 0
2283 1 1.4312899879888324e+01 2.8293061085940678e+00 2.9219450413019294e+00 0 0 0
2281 1 1.4275499356595143e+01 2.8482960728757152e+00 1.6129556925582023e-01 0 0 0
2251 1 1.4432665762510792e+01 4.2687142906093177e-02 2.8659953027634799e-02 0 0 0
2252 1 1.5899439916150824e+01 1.5234181126793176e+00 1.4408806476484814e+00 0 0 0
2702 1 1.8772600228098696e+01 1.5288130336058092e+00 1.3898200600738937e+00 0 0 0
2733 1 1.7243837422916858e+01 2.8696190820816123e+00 2.8321802294386615e+00 0 0 0
2703 1 1.7260376093121089e+01 5.2938898192601481e-02 2.8681036250618996e+00 0 0 0
3183 1 2.0164703085759854e+01 2.8941267268471340e+00 2.7123473614328453e+00 0 0 0
3152 1 2.1593219896984905e+01 1.6767137358053850e+00 1.3507168761915074e+00 0 0 0
3181 1 2.0132044980595293e+01 2.9950528307068947e+00 1.1941241411719261e-03 0 0 0
3153 1 2.0086793244723957e+01 1.3901640869827184e-01 2.7940746326813879e+00 0 0 0
3602 1 2.4424598727952947e+01 1.4153242102525478e+00 1.3424871326371905e+00 0 0 0
3633 1 2.3120721273177818e+01 2.9215881636945773e+00 2.7343951126804944e+00 0 0 0
4052 1 2.7301189347514448e+01 1.5480084453477139e+00 1.4555874596131673e+00 0 0 0
4083 1 2.5841440907823795e+01 2.6956443171658999e+00 2.9531443058301239e+00 0 0 0
4053 1 2.5801356160533444e+01 6.6224155053241418e-02 2.8722810990129739e+00 0 0 0
4081 1 2.5908693684156120e+01 2.9483312823531671e+00 4.6661787279944633e-03 0 0 0
4501 1 2.8511048472446614e+01 6.0032617458665054e-02 4.6989045075031072e-02 0 0 0
32 1 1.4158938360609734e+00 4.1647871586095544e+00 1.4096891914301568e+00 0 0 0
513 1 2.8262018898864274e+00 5.6847129668236258e+00 2.8563613609624734e+00 0 0 0
511 1 2.8168418896629679e+00 5.6405306807346429e+00 3.4784527329712489e-02 0 0 0
482 1 4.2770165771333541e+00 4.2364299038370294e+00 1.5900204646712470e+00 0 0 0
963 1 5.7417150155613053e+00 5.6771508960766797e+00 2.6853560670293621e+00 0 0 0
961 1 5.6992398954424637e+00 5.7950600007448845e+00 1.2346624702873459e-01 0 0 0
932 1 7.1276739100035469e+00 4.2293650876947835e+00 1.4393994253946660e+00 0 0 0
1413 1 8.6351637182367043e+00 5.6911535629727528e+00 2.8070078349184966e+00 0 0 0
1382 1 1.0046259309714356e+01 4.2202340525265081e+00 1.3455989092896758e+00 0 0 0
1863 1 1.1423689988351089e+01 5.7317524212998396e+00 2.9610295972033196e+00 0 0 0
1832 1 1.2946242569519665e+01 4.3619929946072844e+00 1.4944382913669598e+00 0 0 0
2313 1 1.4357971519064131e+01 5.8318935288836640e+00 2.9003169788182452e+00 0 0 0
2311 1 1.4468150258116708e+01 5.7281515510045313e+00 9.4468867802578016e-02 0 0 0
2282 1 1.5864203692642135e+01 4.2632446835710001e+00 1.4640276896606261e+00 0 0 0
2732 1 1.8632024634580809e+01 4.2717826197928401e+00 1.3803635628565285e+00 0 0 0
2763 1 1.7303832999393080e+01 5.7130583225399940e+00 2.9634314245478723e+00 0 0 0
2761 1 1.7297525859117407e+01 5.7090640218921118e+00 2.8038014830284303e-02 0 0 0
3213 1 2.0099365356274568e+01 5.6180006259435196e+00 2.6800931194833448e+00 0 0 0
3182 1 2.1695721358946685e+01 4.3462485708774548e+00 1.3378402134337553e+00 0 0 0
3632 1 2.4494161729690855e+01 4.3056377052937567e+00 1.4956503035050568e+00 0 0 0
3663 1 2.3014164513381992e+01 5.7391989575766580e+00 2.7309777442146408e+00 0 0 0
4082 1 2.7209233953184579e+01 4.2819530949865809e+00 1.4964412295281855e+00 0 0 0
4113 1 2.5859704714813393e+01 5.7469235054922994e+00 2.7036535699082993e+00 0 0 0
4111 1 2.5816548754891148e+01 5.8556495720886046e+00 3.1391681055033871e-02 0 0 0
62 1 1.3588757649360730e+00 7.2413232636583071e+00 1.5923115433465513e+00 0 0 0
543 1 2.8952081403077501e+00 8.6492570735901584e+00 2.8259142969582434e+00 0 0 0
541 1 2.8319434314890231e+00 8.4115115229966886e+00 1.7309756082134697e-02 0 0 0
512 1 4.1783767891850641e+00 7.1248525698904901e+00 1.4709030924817956e+00 0 0 0
993 1 5.8725195849956764e+00 8.4601398592801260e+00 2.9995982219256172e+00 0 0 0
991 1 5.6984914573076670e+00 8.5328120253796591e+00 2.8010193984218883e-02 0 0 0
962 1 7.1705768384254540e+00 7.2259623897274112e+00 1.4454105216293029e+00 0 0 0
1443 1 8.6471736530531444e+00 8.6546718667367379e+00 2.9164472271225828e+00 0 0 0
1441 1 8.6041414034949035e+00 8.5725703279383563e+00 3.7981015680563973e-02 0 0 0
1412 1 1.0003642609506239e+01 7.1288878273353911e+00 1.3801951599384863e+00 0 0 0
1893 1 1.1447071757089526e+01 8.5257344399274935e+00 2.9730818050547194e+00 0 0 0
1891 1 1.1431472954148292e+01 8.6610210538194536e+00 3.9935191893938793e-02 0 0 0
1862 1 1.2924356381313840e+01 7.2819455944094402e+00 1.4719918746029350e+00 0 0 0
2343 1 1.4380507584735511e+01 8.6310222278292059e+00 3.0366310135424244e+00 0 0 0
2312 1 1.5788122845387241e+01 7.2309480514525770e+00 1.4987289013031837e+00 0 0 0
2341 1 1.4344764312159070e+01 8.5105726840865419e+00 3.2032743036928935e-02 0 0 0
2342 1 1.5824542796347284e+01 9.8464658114699102e+00 1.6016199457969242e+00 0 0 0
2762 1 1.8628505220069755e+01 7.0150247388759928e+00 1.4099575229676664e+00 0 0 0
2793 1 1.7256821887990007e+01 8.4956036211638555e+00 2.9851783716128826e+00 0 0 0
2791 1 1.7192012368732485e+01 8.6163103681959861e+00 1.5696299656783452e-01 0 0 0
3212 1 2.1673587780020267e+01 7.1700363893701464e+00 1.2727036428421283e+00 0 0 0
3243 1 2.0008273180295419e+01 8.5569777025677212e+00 2.7301514332057000e+00 0 0 0
3662 1 2.4355330016307654e+01 7.2837746530557270e+00 1.4902160994091860e+00 0 0 0
3693 1 2.2999959901703495e+01 8.6697150620912318e+00 2.9015266227124608e+00 0 0 0
3691 1 2.3012969602865599e+01 8.6876101943506416e+00 3.6207150369598651e-02 0 0 0
4143 1 2.5843816242537212e+01 8.7097957265649804e+00 2.9027131612205594e+00 0 0 0
4112 1 2.7275101015596746e+01 7.2248838904588046e+00 1.3919163311512905e+00 0 0 0
4141 1 2.5803433362864322e+01 8.6499732060213965e+00 1.0517383100847866e-01 0 0 0
4593 1 2.8458615322634611e+01 8.5078729797651302e+00 2.7875097023521533e+00 0 0 0
92 1 1.2646886796642218e+00 9.9436204259399315e+00 1.4047712364515035e+00 0 0 0
573 1 2.7617506253496331e+00 1.1394466187907820e+01 3.0504888073913188e+00 0 0 0
122 1 1.5237540638358080e+00 1.2889738824966578e+01 1.5252583890814844e+00 0 0 0
571 1 2.8170544487775273e+00 1.1355900460231487e+01 1.5718574471342350e-01 0 0 0
542 1 4.2848690921529071e+00 9.9553883776909160e+00 1.4571980603641912e+00 0 0 0
1023 1 5.5774577882738221e+00 1.1433906359816973e+01 3.0163626365677390e+00 0 0 0
572 1 4.1476772440534768e+00 1.2735020824685392e+01 1.5693486992702459e+00 0 0 0
1021 1 5.6744790957630054e+00 1.1292315008404877e+01 9.4397215022233638e-02 0 0 0
992 1 7.1754497429399304e+00 9.9378673779998170e+00 1.5306830119649288e+00 0 0 0
1473 1 8.4422794633983553e+00 1.1509355545137078e+01 3.0074738693030376e+00 0 0 0
1022 1 7.1165941517407152e+00 1.2642198917854859e+01 1.4319542973136863e+00 0 0 0
1471 1 8.6397198496286460e+00 1.1251543701517035e+01 4.9967799811476254e-02 0 0 0
1442 1 9.9143826000012005e+00 1.0042697473256615e+01 1.6611338899933557e+00 0 0 0
1923 1 1.1526300830700547e+01 1.1367808812794710e+01 3.0076777605714420e+00 0 0 0
1472 1 9.9709845331273073e+00 1.2691325529557071e+01 1.5754273428107086e+00 0 0 0
1921 1 1.1485386585791700e+01 1.1306386263921677e+01 1.4444421552630077e-01 0 0 0
1892 1 1.2936643727261826e+01 9.9899279418788023e+00 1.5463661248801108e+00 0 0 0
2373 1 1.4366960454320363e+01 1.1374063956338809e+01 2.9326936978465272e+00 0 0 0
1922 1 1.2906085087853432e+01 1.2792078121946890e+01 1.5000153950923476e+00 0 0 0
2372 1 1.5726103999273132e+01 1.2765967405377328e+01 1.4570141940814807e+00 0 0 0
2371 1 1.4356662805361974e+01 1.1180235184788401e+01 5.3389242969616453e-02 0 0 0
2792 1 1.8597243522510336e+01 9.9978222683640148e+00 1.5264535491081286e+00 0 0 0
2822 1 1.8660518044905256e+01 1.2785708264489145e+01 1.4154463078531345e+00 0 0 0
2823 1 1.7332892998713490e+01 1.1342223537304529e+01 2.8653492714810884e+00 0 0 0
2821 1 1.7248002217699000e+01 1.1364538241133690e+01 4.8987597927394481e-02 0 0 0
3242 1 2.1535003354865943e+01 1.0001761481498296e+01 1.3638681338145193e+00 0 0 0
3273 1 2.0192410840475876e+01 1.1527471494662819e+01 2.8113011387176048e+00 0 0 0
3272 1 2.1624749606825588e+01 1.2746391397054282e+01 1.3038912249487060e+00 0 0 0
3692 1 2.4338505040743705e+01 1.0102045935513654e+01 1.3464170473472927e+00 0 0 0
3723 1 2.2984848806045473e+01 1.1306986798167038e+01 2.7396481501770045e+00 0 0 0
3722 1 2.4229311243125796e+01 1.2862085405138394e+01 1.4790787253186013e+00 0 0 0
3721 1 2.3018493091749246e+01 1.1363794820863493e+01 3.4640153654144967e-02 0 0 0
4142 1 2.7169175647726210e+01 1.0056199262717985e+01 1.4703262483492447e+00 0 0 0
4173 1 2.5793087024104867e+01 1.1375085037926977e+01 2.8476395544978099e+00 0 0 0
4172 1 2.7278157871713901e+01 1.2847767703832799e+01 1.3958567981608840e+00 0 0 0
4623 1 2.8435472267979431e+01 1.1476391089647452e+01 2.9424155316930891e+00 0 0 0
603 1 2.8335278188514885e+00 1.4255804703101330e+01 3.0608540044999124e+00 0 0 0
152 1 1.5025506776381037e+00 1.5770738972623489e+01 1.5822932126182765e+00 0 0 0
601 1 2.9381981559198689e+00 1.4147154254807459e+01 4.3724877191347003e-02 0 0 0
153 1 5.6343062765471075e-02 1.4297752603225025e+01 2.8540418959859357e+00 0 0 0
151 1 1.3536811304888374e-03 1.4227787622251258e+01 1.6071998351632288e-01 0 0 0
1053 1 5.6465896786571381e+00 1.4072932037658031e+01 2.8708399409208365e+00 0 0 0
602 1 4.2054469586337477e+00 1.5645879787381565e+01 1.5445786911901700e+00 0 0 0
1051 1 5.6291067793579055e+00 1.4067048497343039e+01 8.6888785114091149e-02 0 0 0
1503 1 8.5497023235529870e+00 1.4258497463017029e+01 3.0426818470270107e+00 0 0 0
1052 1 7.0498429045954856e+00 1.5563446103121118e+01 1.4864341942679540e+00 0 0 0
1501 1 8.6009767373340473e+00 1.4205521186253430e+01 8.3088786895139322e-02 0 0 0
1953 1 1.1522108778529253e+01 1.4303474408940442e+01 2.8421882813370045e+00 0 0 0
1502 1 1.0061783010591215e+01 1.5557269678510563e+01 1.4800690126602913e+00 0 0 0
1951 1 1.1540403031501439e+01 1.4233202552999538e+01 8.2851076930181441e-02 0 0 0
2403 1 1.4385008940606646e+01 1.4342513555401201e+01 2.9039305286313790e+00 0 0 0
1952 1 1.2865283794667233e+01 1.5758737780055926e+01 1.3766610603187415e+00 0 0 0
2402 1 1.5909815528317482e+01 1.5680773887240363e+01 1.4615472215967658e+00 0 0 0
2853 1 1.7321241945736052e+01 1.4176200417342763e+01 2.8667597662803845e+00 0 0 0
2852 1 1.8834186070751098e+01 1.5704852439394701e+01 1.5318334704488152e+00 0 0 0
3303 1 2.0208464077795238e+01 1.4117006505354189e+01 2.8262916537900713e+00 0 0 0
3302 1 2.1542575684669902e+01 1.5878910501587796e+01 1.3392059241373724e+00 0 0 0
3301 1 2.0008476309974775e+01 1.4196292090498240e+01 6.2720581652725732e-02 0 0 0
3753 1 2.2814360950510405e+01 1.4365369147361983e+01 2.8260249589245938e+00 0 0 0
3752 1 2.4255590532198351e+01 1.5727194631957973e+01 1.4077590733416947e+00 0 0 0
3751 1 2.2893119790353055e+01 1.4384409344085560e+01 5.4748010554909854e-02 0 0 0
4203 1 2.5776433104478411e+01 1.4338061538994697e+01 2.9330903771745271e+00 0 0 0
4202 1 2.7106709531279659e+01 1.5649944864757742e+01 1.5000818924441568e+00 0 0 0
4201 1 2.5830680027272081e+01 1.4151195467741234e+01 1.1637985827498198e-02 0 0 0
182 1 1.3911359609366707e+00 1.8607740272388767e+01 1.4770156209908534e+00 0 0 0
633 1 2.7640345247176157e+00 1.7110623934450373e+01 2.9421482570066684e+00 0 0 0
631 1 2.8368266573039578e+00 1.7053310442102649e+01 3.9501289284963548e-02 0 0 0
181 1 1.3240059464997955e-02 1.7020573621328868e+01 1.9808954618559302e-01 0 0 0
632 1 4.2253758771759893e+00 1.8548136106266821e+01 1.4514370073591021e+00 0 0 0
1083 1 5.6514724225693795e+00 1.7086422531625054e+01 2.9746193936426044e+00 0 0 0
1081 1 5.7565849321618972e+00 1.7069270800231838e+01 1.3854973127663944e-01 0 0 0
1082 1 7.1902779505384098e+00 1.8564902255258836e+01 1.4728153170392611e+00 0 0 0
1533 1 8.5339699604019241e+00 1.7005512687315246e+01 2.8372196897710480e+00 0 0 0
1531 1 8.4846585126356917e+00 1.7008750224704986e+01 5.5161599011203433e-02 0 0 0
1532 1 1.0024715312003700e+01 1.8375784366460749e+01 1.4931929586401140e+00 0 0 0
1983 1 1.1422760585184413e+01 1.7086015819200711e+01 2.8204939436368153e+00 0 0 0
1982 1 1.2877771975118119e+01 1.8589761757494550e+01 1.4905357128856538e+00 0 0 0
2433 1 1.4412605268447596e+01 1.7068553899283312e+01 2.8444579776491326e+00 0 0 0
2432 1 1.5784014797975969e+01 1.8494204812989640e+01 1.4847570137693022e+00 0 0 0
2431 1 1.4368000621934204e+01 1.7041934791914834e+01 3.1451583829813140e-02 0 0 0
2882 1 1.8815847915285019e+01 1.8586492486599084e+01 1.4517629379397021e+00 0 0 0
2883 1 1.7290482352096237e+01 1.7025868903862193e+01 2.8865534669694539e+00 0 0 0
2881 1 1.7347300962851438e+01 1.7063757118143620e+01 1.8969218596334514e-01 0 0 0
3333 1 2.0075688801831642e+01 1.7211304769204176e+01 2.9360680081515036e+00 0 0 0
3332 1 2.1629708069396479e+01 1.8523479878530527e+01 1.5053383145301173e+00 0 0 0
3782 1 2.4461426007166803e+01 1.8631622411846287e+01 1.4412132621778553e+00 0 0 0
3783 1 2.2955600296588326e+01 1.7063364119682362e+01 2.9626025550133464e+00 0 0 0
3781 1 2.3001713981757526e+01 1.7264809493310423e+01 9.5192980454207543e-02 0 0 0
4232 1 2.7133689050734663e+01 1.8466663559761660e+01 1.4791393873705663e+00 0 0 0
4233 1 2.5627864853373541e+01 1.7144831194306370e+01 2.9161199964161408e+00 0 0 0
4231 1 2.5890567655261130e+01 1.7074311062542971e+01 8.6026551987637770e-03 0 0 0
212 1 1.4817298001360759e+00 2.1450189247451434e+01 1.5714462304178474e+00 0 0 0
663 1 2.7350893534256122e+00 2.0118350556439747e+01 2.9997238329383547e+00 0 0 0
693 1 2.9455819538800028e+00 2.2995032639124766e+01 2.8909035317246170e+00 0 0 0
691 1 2.8855355523898951e+00 2.2917972047988336e+01 1.7879872482527842e-01 0 0 0
661 1 2.8449809572597804e+00 1.9996297355064740e+01 5.5846125096398240e-02 0 0 0
1113 1 5.6811102452249065e+00 1.9976648393909997e+01 2.7846351584752260e+00 0 0 0
662 1 4.1857865961732728e+00 2.1455285193396321e+01 1.5751421713993410e+00 0 0 0
1143 1 5.6909755736031320e+00 2.2832657699121665e+01 2.7828131352484595e+00 0 0 0
1112 1 7.0784772930346369e+00 2.1367974825082772e+01 1.3546501809020766e+00 0 0 0
1563 1 8.5857652144217322e+00 1.9851103421979730e+01 2.7300184945833572e+00 0 0 0
1593 1 8.6527572827262098e+00 2.2781281831962261e+01 2.8024280111962905e+00 0 0 0
1591 1 8.6597096795672517e+00 2.2676368730514753e+01 6.5357353239250043e-02 0 0 0
1562 1 1.0059019164631543e+01 2.1187158167168946e+01 1.5386501639670671e+00 0 0 0
2013 1 1.1498948414190336e+01 1.9910662450490964e+01 2.8784416097298355e+00 0 0 0
2043 1 1.1601913797195882e+01 2.2906760239862891e+01 2.8482974466950548e+00 0 0 0
2012 1 1.2943799932172114e+01 2.1398785893190748e+01 1.3912255250299685e+00 0 0 0
2463 1 1.4317145327684642e+01 2.0038525668420924e+01 2.8704514784349406e+00 0 0 0
2493 1 1.4309870049339976e+01 2.2830630935336725e+01 2.7776425668652442e+00 0 0 0
2462 1 1.5828383875327260e+01 2.1455405189566193e+01 1.4377262890634857e+00 0 0 0
2912 1 1.8695003866000125e+01 2.1461585798475454e+01 1.4302967825809756e+00 0 0 0
2913 1 1.7248568004791103e+01 1.9965387835151503e+01 2.7753724429956450e+00 0 0 0
2943 1 1.7233900149957584e+01 2.2904373612673268e+01 2.8189366862352720e+00 0 0 0
3363 1 2.0125346989029556e+01 2.0151825403251134e+01 2.8097056646417924e+00 0 0 0
3393 1 2.0308755407869473e+01 2.2882590207310646e+01 2.8117713346226907e+00 0 0 0
3362 1 2.1611210839969885e+01 2.1404998206986093e+01 1.2890704511283473e+00 0 0 0
3812 1 2.4478002776080206e+01 2.1372276396003095e+01 1.4533540756365628e+00 0 0 0
3813 1 2.3030353969772360e+01 1.9919778190502885e+01 2.8912296610361325e+00 0 0 0
3843 1 2.3015199583541737e+01 2.2914120855598490e+01 2.7550396879086234e+00 0 0 0
3841 1 2.2880315351704077e+01 2.2894678211199547e+01 4.2359253153740895e-02 0 0 0
3811 1 2.3003340258586032e+01 1.9935299258696691e+01 1.3024278949906432e-02 0 0 0
4262 1 2.7202220986543661e+01 2.1433544135720780e+01 1.4589978434555961e+00 0 0 0
4263 1 2.5916285266480735e+01 2.0093063202249208e+01 2.8944997532411127e+00 0 0 0
4293 1 2.5791148356095380e+01 2.2944427805267580e+01 2.7622376241820659e+00 0 0 0
242 1 1.4276316802957603e+00 2.4354895224802089e+01 1.3908161963064742e+00 0 0 0
723 1 2.9405610708265764e+00 2.5707247960801219e+01 2.8468698857455808e+00 0 0 0
721 1 2.9730307784817391e+00 2.5725683948577849e+01 9.6841619929570300e-02 0 0 0
273 1 9.7394731791027311e-03 2.5756719315209235e+01 2.8412731264648485e+00 0 0 0
692 1 4.5342189326705453e+00 2.4241099578862393e+01 1.4722621064822787e+00 0 0 0
1173 1 5.7393773837992104e+00 2.5860803239756972e+01 2.9299649134063999e+00 0 0 0
1171 1 5.7245592120026538e+00 2.5686865076550362e+01 1.8326144511551859e-01 0 0 0
1142 1 7.2153726152529920e+00 2.4084059446989595e+01 1.4943132125852996e+00 0 0 0
1623 1 8.7372878736243358e+00 2.5634288644908466e+01 2.8880133007083124e+00 0 0 0
1621 1 8.5272227362266673e+00 2.5620881047424280e+01 2.2798999140515189e-01 0 0 0
1592 1 1.0133552576176855e+01 2.4208486605514178e+01 1.4140821564249693e+00 0 0 0
2073 1 1.1458966997020651e+01 2.5690252707177358e+01 2.8204331992321392e+00 0 0 0
2071 1 1.1597823651838578e+01 2.5626094065099419e+01 9.3574809465458514e-02 0 0 0
2042 1 1.3067706284725270e+01 2.4176544522282132e+01 1.3318453629838956e+00 0 0 0
2523 1 1.4616791838678314e+01 2.5615718304313276e+01 2.7953601843062237e+00 0 0 0
2492 1 1.5866932580130481e+01 2.4261995384833845e+01 1.5366601465077152e+00 0 0 0
2942 1 1.8719166610935606e+01 2.4220717761093791e+01 1.3117294402063251e+00 0 0 0
2973 1 1.7367240399559627e+01 2.5677221457376767e+01 2.7861907506869685e+00 0 0 0
3423 1 2.0169623312540836e+01 2.5729496435165068e+01 2.7216855037951428e+00 0 0 0
3392 1 2.1734214076222123e+01 2.4287708517799594e+01 1.3791486061768969e+00 0 0 0
3842 1 2.4522523356766762e+01 2.4412170552195533e+01 1.4913745780480876e+00 0 0 0
3873 1 2.2934570463897252e+01 2.5729586950175548e+01 2.7682302601151103e+00 0 0 0
4323 1 2.5777327096175568e+01 2.5698302335615594e+01 2.8317653984459770e+00 0 0 0
4292 1 2.7334542461073770e+01 2.4388029255041936e+01 1.5156670589781394e+00 0 0 0
4321 1 2.5879588277594447e+01 2.5764006267418747e+01 1.2104417200497153e-02 0 0 0
272 1 1.3912185407763198e+00 2.7152948206122062e+01 1.4524919446497619e+00 0 0 0
753 1 2.9025002509641036e+00 2.8508762195556997e+01 2.7609275858962836e+00 0 0 0
303 1 6.2813906422944481e-03 2.8589439694455731e+01 2.9313289684357855e+00 0 0 0
751 1 3.0208911293922451e+00 2.8552334141542065e+01 3.4359617635907114e-02 0 0 0
722 1 4.3438744037896111e+00 2.7105048838090216e+01 1.4842280011087656e+00 0 0 0
1203 1 5.8730512252698102e+00 2.8598120449152386e+01 3.0410626135260528e+00 0 0 0
1201 1 5.7937841013054969e+00 2.8582120225998842e+01 2.8854455963847853e-02 0 0 0
1172 1 7.1531453864153303e+00 2.7100664406152383e+01 1.5120345297258946e+00 0 0 0
1653 1 8.7992622051471194e+00 2.8652741857197672e+01 2.9006068344228662e+00 0 0 0
1622 1 1.0029088120636718e+01 2.7177511366495590e+01 1.3963081617438826e+00 0 0 0
2103 1 1.1607980537939568e+01 2.8468178787733756e+01 2.9098105639998879e+00 0 0 0
2072 1 1.3037586892393303e+01 2.7050575082746143e+01 1.3357979572403242e+00 0 0 0
2553 1 1.4455029815271537e+01 2.8490687330876060e+01 2.6939191904291251e+00 0 0 0
2522 1 1.5941408053516154e+01 2.7141610809931347e+01 1.4232602424927232e+00 0 0 0
2972 1 1.8839437584651389e+01 2.7090534035830434e+01 1.2301567306208561e+00 0 0 0
3003 1 1.7363899492015317e+01 2.8457503560917168e+01 2.6725009193554650e+00 0 0 0
3422 1 2.1709473843059698e+01 2.7211862995444516e+01 1.4541374966137921e+00 0 0 0
3453 1 2.0075758773854254e+01 2.8549635302701049e+01 2.7844842678229362e+00 0 0 0
3451 1 2.0324917892124070e+01 2.8688518161018607e+01 1.2062120300988348e-02 0 0 0
3872 1 2.4403274186827414e+01 2.7362386612347358e+01 1.4094580411982471e+00 0 0 0
3903 1 2.3009115294563756e+01 2.8606048222257062e+01 2.8495864680873595e+00 0 0 0
4322 1 2.7271739990834508e+01 2.7038709157441563e+01 1.4009447911006188e+00 0 0 0
4353 1 2.5884001166169810e+01 2.8455746059739916e+01 2.8957106206032814e+00 0 0 0
4803 1 2.8494139005038360e+01 2.8491705437802015e+01 2.8734745650699485e+00 0 0 0
333 1 9.4132168953002995e-03 3.1437759351775579e+01 2.8711902859491611e+00 0 0 0
302 1 1.5544300808189371e+00 3.0065162788045868e+01 1.3374716025131133e+00 0 0 0
783 1 2.8751967096347020e+00 3.1461310155070695e+01 3.0027538803430813e+00 0 0 0
332 1 1.4011833680249444e+00 3.2823751932275457e+01 1.4822679618794159e+00 0 0 0
752 1 4.4048687856115434e+00 3.0139262487868109e+01 1.4193040467583671e+00 0 0 0
1233 1 5.7658224833748104e+00 3.1335271789045503e+01 2.9925828070586009e+00 0 0 0
1231 1 5.8207298433248509e+00 3.1276376891628964e+01 2.1317214841409154e-01 0 0 0
1202 1 7.2342656113333295e+00 2.9893408747845886e+01 1.4405299648502847e+00 0 0 0
1683 1 8.6327152755323446e+00 3.1376477272608501e+01 2.7819915455565347e+00 0 0 0
1232 1 7.1366367152181835e+00 3.2758836910740413e+01 1.5062457388020314e+00 0 0 0
1652 1 1.0099302109896612e+01 3.0047202545495441e+01 1.4517579394362050e+00 0 0 0
2133 1 1.1571612912154224e+01 3.1372175515548626e+01 2.9217274791910612e+00 0 0 0
1682 1 1.0052749089777889e+01 3.2805930023433476e+01 1.3494151012615072e+00 0 0 0
2131 1 1.1572027760196866e+01 3.1491797573982023e+01 3.0935902647668211e-03 0 0 0
2102 1 1.3053635912194826e+01 2.9903457762759722e+01 1.3512176855695432e+00 0 0 0
2583 1 1.4447360737257776e+01 3.1424664690895227e+01 2.8414853914011209e+00 0 0 0
2132 1 1.2981017917619068e+01 3.2865346134314635e+01 1.4819078674916888e+00 0 0 0
2581 1 1.4556553770552018e+01 3.1382255427067591e+01 5.2817294012548643e-02 0 0 0
2582 1 1.5884949868243998e+01 3.2903863856273546e+01 1.3971815462359767e+00 0 0 0
2552 1 1.5993253132036768e+01 3.0046211280658628e+01 1.3792375628132898e+00 0 0 0
3002 1 1.8733212660161076e+01 2.9926031519089328e+01 1.3390593593326570e+00 0 0 0
3033 1 1.7330629685013321e+01 3.1390139592676803e+01 2.8273012591259765e+00 0 0 0
3032 1 1.8574708639936013e+01 3.2815792163517514e+01 1.4182466122136659e+00 0 0 0
3452 1 2.1570566760233440e+01 2.9988070356134987e+01 1.6223474533767501e+00 0 0 0
3483 1 2.0043405826950004e+01 3.1499682047496240e+01 2.8278514571404170e+00 0 0 0
3482 1 2.1415001027639303e+01 3.2928453451186471e+01 1.4650061831154375e+00 0 0 0
3481 1 2.0151367001482775e+01 3.1476051259777133e+01 4.8297630607429198e-02 0 0 0
3902 1 2.4548898080477475e+01 3.0045392149804751e+01 1.3766742973211583e+00 0 0 0
3933 1 2.2861913902891342e+01 3.1490703477738812e+01 2.8663110518054693e+00 0 0 0
3932 1 2.4370426876116582e+01 3.2918127506866853e+01 1.4451289223351349e+00 0 0 0
3931 1 2.3022278505060047e+01 3.1373736333393932e+01 6.6852309820520053e-02 0 0 0
4352 1 2.7120000245022656e+01 2.9939314882260671e+01 1.4752660846900827e+00 0 0 0
4383 1 2.5853992393680709e+01 3.1520963099089361e+01 2.8996355712979427e+00 0 0 0
4382 1 2.7305613552594991e+01 3.2874354950936876e+01 1.4159229673843572e+00 0 0 0
4381 1 2.5842791799763450e+01 3.1543201199930706e+01 1.8983903526275725e-01 0 0 0
4833 1 2.8547845154931991e+01 3.1349351381454934e+01 2.8224248709218491e+00 0 0 0
813 1 2.7891410325337249e+00 3.4248915270851811e+01 2.8594794197427595e+00 0 0 0
362 1 1.5613461670022919e+00 3.5762127350660748e+01 1.5367642781790469e+00 0 0 0
811 1 2.9228731286488361e+00 3.4256123408411383e+01 5.5401281134374224e-02 0 0 0
361 1 1.4034582886283831e-01 3.4381899506840455e+01 9.3495696014400664e-04 0 0 0
782 1 4.4569396747399628e+00 3.2978614356914321e+01 1.5198320849101483e+00 0 0 0
1263 1 5.8591296578892056e+00 3.4305257131226682e+01 2.9942850242103147e+00 0 0 0
812 1 4.4669247823816711e+00 3.5781283170224569e+01 1.6343237947305580e+00 0 0 0
1261 1 5.8097578782412942e+00 3.4339986951020748e+01 8.2442153752545252e-02 0 0 0
1713 1 8.6472633338564524e+00 3.4254182107867550e+01 3.0249509242573058e+00 0 0 0
1262 1 7.2650768864876776e+00 3.5757397295386951e+01 1.4665618724947271e+00 0 0 0
1711 1 8.5346735946624097e+00 3.4343702838257244e+01 7.6474438913884057e-02 0 0 0
2163 1 1.1341136135769707e+01 3.4222575305770462e+01 2.8893989465546404e+00 0 0 0
1712 1 1.0083112859730578e+01 3.5742970292090860e+01 1.4118812437992725e+00 0 0 0
2161 1 1.1345376936641234e+01 3.4217384141818840e+01 3.4452738782910330e-02 0 0 0
2162 1 1.2893992610876708e+01 3.5700693317396201e+01 1.3393466418760860e+00 0 0 0
2613 1 1.4401877477962099e+01 3.4164451056463363e+01 2.7545566285757150e+00 0 0 0
2612 1 1.5918150266305368e+01 3.5627581329756069e+01 1.3931398982185856e+00 0 0 0
3063 1 1.7345754189947591e+01 3.4174429103165878e+01 2.7897700078932632e+00 0 0 0
3062 1 1.8768697135849489e+01 3.5770561229750612e+01 1.4291039813588449e+00 0 0 0
3061 1 1.7277726636174695e+01 3.4367854899086879e+01 3.3924513887974683e-02 0 0 0
3513 1 2.0022584719271002e+01 3.4316729260132803e+01 2.9498589579656667e+00 0 0 0
3512 1 2.1530818370249676e+01 3.5759745787298328e+01 1.3891811758426218e+00 0 0 0
3511 1 2.0151338512608120e+01 3.4406878896688781e+01 6.7470107870555296e-02 0 0 0
3963 1 2.2862726802027787e+01 3.4208524063148587e+01 2.8798939816855951e+00 0 0 0
3962 1 2.4410342038354496e+01 3.5756678340933647e+01 1.2998435555036509e+00 0 0 0
3961 1 2.3024425569876882e+01 3.4319461824630665e+01 8.1246264859736073e-02 0 0 0
4413 1 2.5828391079184460e+01 3.4430408037168348e+01 2.8513436313703142e+00 0 0 0
4412 1 2.7256491053338163e+01 3.5778301221633342e+01 1.3455486174250344e+00 0 0 0
392 1 1.4523449118052285e+00 3.8621742562710111e+01 1.6284414832850389e+00 0 0 0
843 1 3.0286340567096892e+00 3.7089388897179091e+01 2.8392188948374866e+00 0 0 0
841 1 2.8077060498637723e+00 3.7283777057288020e+01 3.9335224424229896e-02 0 0 0
391 1 9.5198695646234691e-02 3.7064109388427681e+01 1.2880898416297981e-01 0 0 0
842 1 4.4624843590899568e+00 3.8621302898146268e+01 1.4995438557811080e+00 0 0 0
1293 1 5.7663880793523807e+00 3.7128443638830348e+01 2.8768081784305051e+00 0 0 0
1291 1 5.8261889841908818e+00 3.7176771818096057e+01 1.0805932622598095e-01 0 0 0
1292 1 7.2337157003440478e+00 3.8780462421627760e+01 1.4169718247855825e+00 0 0 0
1743 1 8.6508130643442378e+00 3.7192536629044866e+01 2.8498798452778735e+00 0 0 0
1741 1 8.5374626799192974e+00 3.7274114492689279e+01 1.6078677260928487e-02 0 0 0
1742 1 1.0086605262758905e+01 3.8685251977978567e+01 1.3034246383185581e+00 0 0 0
2193 1 1.1377125157974763e+01 3.7145480119240446e+01 2.9242771563094907e+00 0 0 0
2191 1 1.1388857054412130e+01 3.7134764811571458e+01 1.7452550702323322e-02 0 0 0
2192 1 1.2846176084517435e+01 3.8536026623645100e+01 1.3338964026964730e+00 0 0 0
2643 1 1.4434182515998726e+01 3.7146026696204828e+01 2.7468979384296563e+00 0 0 0
2642 1 1.5847171884100742e+01 3.8486016111398470e+01 1.4869761913650714e+00 0 0 0
2641 1 1.4409037070973872e+01 3.7228412552744487e+01 7.5548933183888778e-02 0 0 0
3092 1 1.8676588834713243e+01 3.8524678349844223e+01 1.3439311230246715e+00 0 0 0
3093 1 1.7301664570843300e+01 3.7208210079330158e+01 2.8940300690631435e+00 0 0 0
3091 1 1.7252378434223967e+01 3.7164351007671939e+01 3.5225186352086268e-02 0 0 0
3543 1 2.0008864075630395e+01 3.7193797187042506e+01 2.7908984917274222e+00 0 0 0
3542 1 2.1528743369455302e+01 3.8568490855554955e+01 1.3675583108272236e+00 0 0 0
3992 1 2.4425937054751074e+01 3.8418761960919852e+01 1.3859127309223547e+00 0 0 0
3993 1 2.2877899212360383e+01 3.7107146586045630e+01 2.9425519466980590e+00 0 0 0
3991 1 2.3023498536677181e+01 3.7136871337100445e+01 2.2301004556446458e-02 0 0 0
4442 1 2.7302600445496168e+01 3.8408896596989891e+01 1.4662750757626455e+00 0 0 0
4443 1 2.5846450369809101e+01 3.7151297289080588e+01 2.8907448893579648e+00 0 0 0
423 1 2.1644937947645389e-02 4.0090453922763700e+01 2.8510955539864820e+00 0 0 0
453 1 2.8422469932812988e+00 4.2797230194503626e+01 2.9296008648189718e+00 0 -1 0
422 1 1.4719634065092873e+00 4.1486771715318241e+01 1.4099827812941008e+00 0 0 0
873 1 3.0750518489803724e+00 4.0073804490035897e+01 2.8598084911208637e+00 0 0 0
872 1 4.3093675344694535e+00 4.1497149985736158e+01 1.3652913703960508e+00 0 0 0
1323 1 5.8605831895765039e+00 4.0030408433771697e+01 2.9045301477980217e+00 0 0 0
1322 1 7.2803770135971693e+00 4.1639896422793740e+01 1.4715178043786763e+00 0 0 0