#  #

8  atoms
2  atom types

0.00000000 4.20000000  xlo xhi
0.00000000 4.20000000  ylo yhi
0.00000000 4.20000000  zlo zhi

Atoms

1   1  2.00000000   0.00000000 0.00000000 0.00000000
2   1  2.00000000   2.10000000 2.10000000 0.00000000
3   1  2.00000000   2.10000000 0.00000000 2.10000000
4   1  2.00000000   0.00000000 2.10000000 2.10000000
5   2  -2.00000000   2.10000000 0.00000000 0.00000000
6   2  -2.00000000   0.00000000 2.10000000 0.00000000
7   2  -2.00000000   0.00000000 0.00000000 2.10000000
8   2  -2.00000000   2.10000000 2.10000000 2.10000000
