LAMMPS data file via write_data, version 7 Aug 2019, timestep = 5

8 atoms
2 atom types

-5.3950992639372093e-03 4.2053950992639377e+00 xlo xhi
-5.3950992639372093e-03 4.2053950992639377e+00 ylo yhi
-5.3950992639372093e-03 4.2053950992639377e+00 zlo zhi

Masses

1 24.3
2 16

Pair Coeffs # buck/coul/long

1 0 0.1 0
2 22764 0.149 27.88

Atoms # charge

3 1 2.0000000000000000e+00 2.1000000000000014e+00 4.2053950992639360e+00 2.0999999999999992e+00 0 -1 0
8 2 -2.0000000000000000e+00 2.1000000000000014e+00 2.0999999999999992e+00 2.0999999999999992e+00 0 0 0
7 2 -2.0000000000000000e+00 -5.3950992639363766e-03 4.2053950992639368e+00 2.0999999999999992e+00 0 -1 0
4 1 2.0000000000000000e+00 -5.3950992639363766e-03 2.0999999999999992e+00 2.0999999999999992e+00 0 0 0
1 1 2.0000000000000000e+00 -5.3950992639364790e-03 4.2053950992639360e+00 4.2053950992639368e+00 0 -1 -1
6 2 -2.0000000000000000e+00 -5.3950992639364825e-03 2.0999999999999992e+00 4.2053950992639368e+00 0 0 -1
5 2 -2.0000000000000000e+00 2.1000000000000014e+00 4.2053950992639368e+00 4.2053950992639368e+00 0 -1 -1
2 1 2.0000000000000000e+00 2.1000000000000014e+00 2.0999999999999992e+00 4.2053950992639368e+00 0 0 -1

Velocities

3 0.0000000000000000e+00 0.0000000000000000e+00 0.0000000000000000e+00
8 0.0000000000000000e+00 0.0000000000000000e+00 0.0000000000000000e+00
7 0.0000000000000000e+00 0.0000000000000000e+00 0.0000000000000000e+00
4 0.0000000000000000e+00 0.0000000000000000e+00 0.0000000000000000e+00
1 0.0000000000000000e+00 0.0000000000000000e+00 0.0000000000000000e+00
6 0.0000000000000000e+00 0.0000000000000000e+00 0.0000000000000000e+00
5 0.0000000000000000e+00 0.0000000000000000e+00 0.0000000000000000e+00
2 0.0000000000000000e+00 0.0000000000000000e+00 0.0000000000000000e+00
