
  ___ ___ ___ _ _ _  
 |   |   |_  | | | | 
 | | | | | . | | | | 
 |__ |  _|___|_____|  19.8.1
 |___|_|             

User:   ericlin@hebbe12-1
Date:   Tue Feb  4 11:41:24 2020
Arch:   x86_64
Pid:    2260
Python: 3.7.2
gpaw:   /apps/Hebbe7/software/MPI/intel/2019.1.144-GCC-8.2.0-2.31.1/impi/2018.4.274/GPAW/19.8.1-Python-3.7.2/lib/python3.7/site-packages/gpaw
_gpaw:  /apps/Hebbe7/software/MPI/intel/2019.1.144-GCC-8.2.0-2.31.1/impi/2018.4.274/GPAW/19.8.1-Python-3.7.2/bin/
        gpaw-python
ase:    /apps/Hebbe7/software/MPI/intel/2019.1.144-GCC-8.2.0-2.31.1/impi/2018.4.274/ASE/3.18.0-Python-3.7.2/lib/python3.7/site-packages/ase (version 3.18.0)
numpy:  /apps/Hebbe7/software/MPI/intel/2019.1.144-GCC-8.2.0-2.31.1/impi/2018.4.274/SciPy-bundle/2019.03/lib/python3.7/site-packages/numpy (version 1.16.2)
scipy:  /apps/Hebbe7/software/MPI/intel/2019.1.144-GCC-8.2.0-2.31.1/impi/2018.4.274/SciPy-bundle/2019.03/lib/python3.7/site-packages/scipy (version 1.2.1)
libxc:  4.3.4
units:  Angstrom and eV
cores:  1

Input parameters:
  basis: dzp
  h: 0.25
  mode: lcao
  nbands: 10
  occupations: {name: fermi-dirac,
                width: 0.05}
  setups: {Na: 1}

System changes: positions, numbers, cell, pbc, initial_charges, initial_magmoms 

Initialize ...

Na-setup:
  name: Sodium
  id: fa5c50181d04022fed15b2593599c257
  Z: 11
  valence: 1
  core: 10
  charge: 0.0
  file: /apps/Common/Core/GPAW-setups/0.9.20000/Na.1.LDA.gz
  compensation charges: gauss, rc=0.43, lmax=2
  cutoffs: 2.36(filt), 3.60(core),
  valence states:
                energy  radius
    3s(1.00)    -2.819   1.349
    3p(0.00)    -0.774   1.349
    *s          24.392   1.349

  LCAO basis set for Na:
    Name: 1.dzp
    File: /apps/Common/Core/GPAW-setups/0.9.20000/Na.1.dzp.basis.gz
    Number of radial functions: 3
    Number of spherical harmonics: 5
      l=0, rc=11.7656 Bohr: 3s-sz confined orbital
      l=0, rc=7.1094 Bohr: 3s-dz split-valence wave
      l=1, rc=11.7656 Bohr: p-type Gaussian polarization

Reference energy: -35189.668405

Spin-paired calculation

Occupation numbers:
  Fermi-Dirac: width=0.0500 eV

Convergence criteria:
  Maximum total energy change: 0.0005 eV / electron
  Maximum integral of absolute density change: 0.0001 electrons
  Maximum integral of absolute eigenstate change: 4e-08 eV^2
  Maximum number of iterations: 333

Symmetries present (total): 1

  ( 1  0  0)
  ( 0  1  0)
  ( 0  0  1)

1 k-point (Gamma)
1 k-point in the irreducible part of the Brillouin zone
       k-points in crystal coordinates                weights
   0:     0.00000000    0.00000000    0.00000000          1/1

Wave functions: LCAO
  Diagonalizer: Serial LAPACK
  Atomic Correction: dense with blas
  Datatype: float
 

Eigensolver
   LCAO using direct dense diagonalizer 

Densities:
  Coarse grid: 64*64*64 grid
  Fine grid: 128*128*128 grid
  Total Charge: 0.000000 

Density mixing:
  Method: separate
  Backend: pulay
  Linear mixing parameter: 0.25
  Mixing with 3 old densities
  No damping of long wave oscillations 

Hamiltonian:
  XC and Coulomb potentials evaluated on a 128*128*128 grid
  Using the LDA Exchange-Correlation functional
  Interpolation: tri-quintic (5. degree polynomial)
  Poisson solver: FastPoissonSolver using
    6*3+1=19 point O(h^6) finite-difference Laplacian stencil;
    FFT axes: [];
    FST axes: [0, 1, 2].
 

Memory estimate:
  Process memory now: 381.02 MiB
  Calculator: 137.65 MiB
    Density: 86.07 MiB
      Arrays: 50.70 MiB
      Localized functions: 23.92 MiB
      Mixer: 11.45 MiB
    Hamiltonian: 34.89 MiB
      Arrays: 33.16 MiB
      XC: 0.00 MiB
      Poisson: 0.00 MiB
      vbar: 1.73 MiB
    Wavefunctions: 16.70 MiB
      C [qnM]: 0.00 MiB
      S, T [2 x qmm]: 0.02 MiB
      P [aqMi]: 0.00 MiB
      BasisFunctions: 16.67 MiB
      Eigensolver: 0.00 MiB

Total number of cores used: 1

Number of atoms: 8
Number of atomic orbitals: 40
Number of bands in calculation: 10
Bands to converge: occupied states only
Number of valence electrons: 8

... initialized

Initializing position-dependent things.

Density initialized from atomic densities
           .--------------------------------------.  
          /|                                      |  
         / |                                      |  
        /  |                                      |  
       /   |                                      |  
      /    |                                      |  
     /     |                                      |  
    /      |                                      |  
   /       |                                      |  
  /        |                                      |  
 *         |                                      |  
 |         |             Na                       |  
 |         |                                      |  
 |         |        Na                            |  
 |         |      Na                              |  
 |         |              NNa                     |  
 |         |                                      |  
 |         |                                      |  
 |         |       Na                             |  
 |         |       Na     Na                      |  
 |         .--------------------------------------.  
 |        /                                      /   
 |       /                                      /    
 |      /                                      /     
 |     /                                      /      
 |    /                                      /       
 |   /                                      /        
 |  /                                      /         
 | /                                      /          
 |/                                      /           
 *--------------------------------------*            

Positions:
   0 Na     8.848482    7.304199    8.448866    ( 0.0000,  0.0000,  0.0000)
   1 Na     4.581592    9.144026    7.962680    ( 0.0000,  0.0000,  0.0000)
   2 Na     5.890572    5.965492    6.929492    ( 0.0000,  0.0000,  0.0000)
   3 Na     7.302370   10.023085    9.872634    ( 0.0000,  0.0000,  0.0000)
   4 Na     5.323608    8.639410    4.831536    ( 0.0000,  0.0000,  0.0000)
   5 Na     7.756232   10.230644    6.648892    ( 0.0000,  0.0000,  0.0000)
   6 Na     8.583794    7.238972    5.203446    ( 0.0000,  0.0000,  0.0000)
   7 Na     5.881300    6.788234   10.093000    ( 0.0000,  0.0000,  0.0000)

Unit cell:
           periodic     x           y           z      points  spacing
  1. axis:    no    16.000000    0.000000    0.000000    64     0.2500
  2. axis:    no     0.000000   16.000000    0.000000    64     0.2500
  3. axis:    no     0.000000    0.000000   16.000000    64     0.2500

  Lengths:  16.000000  16.000000  16.000000
  Angles:   90.000000  90.000000  90.000000

Effective grid spacing dv^(1/3) = 0.2500

                     log10-error:    total        iterations:
           time      wfs    density  energy       fermi  poisson
iter:   1  11:41:28          +inf    -7.648696    2      1      
iter:   2  11:41:29         -0.62    -7.377211    7      1      
iter:   3  11:41:30         -0.87    -7.285304    7      1      
iter:   4  11:41:31         -1.38    -7.281424    2      1      
iter:   5  11:41:32         -2.06    -7.281270    2      1      
iter:   6  11:41:33         -2.29    -7.281231    1      1      
iter:   7  11:41:34         -2.58    -7.281207    2      1      
iter:   8  11:41:35         -3.26    -7.281207    1      1      
iter:   9  11:41:36         -3.44    -7.281206    1      1      
iter:  10  11:41:37         -4.15    -7.281206    1      1      

Converged after 10 iterations.

Dipole moment: (0.006868, -0.004775, -0.010657) |e|*Ang

Energy contributions relative to reference atoms: (reference = -35189.668405)

Kinetic:        +30.550308
Potential:      -26.747080
External:        +0.000000
XC:             -11.124165
Entropy (-ST):   -0.000003
Local:           +0.039733
--------------------------
Free energy:     -7.281208
Extrapolated:    -7.281206

Fermi level: -2.37567

 Band  Eigenvalues  Occupancy
    0     -4.80158    2.00000
    1     -3.52286    2.00000
    2     -3.10742    2.00000
    3     -3.09889    2.00000
    4     -1.64629    0.00000
    5     -1.61766    0.00000
    6     -1.61158    0.00000
    7     -1.45448    0.00000
    8      1.34079    0.00000
    9      1.55188    0.00000

Gap: 1.453 eV
Transition (v -> c):
  (s=0, k=0, n=3, [0.00, 0.00, 0.00]) -> (s=0, k=0, n=4, [0.00, 0.00, 0.00])

Forces in eV/Ang:
  0 Na    0.00114    0.00246   -0.00032
  1 Na    0.00178    0.00290   -0.00041
  2 Na   -0.00001    0.00318    0.00131
  3 Na    0.00053    0.00317   -0.00115
  4 Na    0.00264   -0.00711   -0.00067
  5 Na   -0.00030    0.00431    0.01018
  6 Na   -0.00762   -0.00359   -0.00202
  7 Na   -0.00159   -0.00512   -0.00504

Timing:                              incl.     excl.
-----------------------------------------------------------
Basic WFS set positions:             0.000     0.000   0.0% |
Basis functions set positions:       0.034     0.034   0.2% |
Forces:                              0.615     0.109   0.7% |
 LCAO forces:                        0.506     0.000   0.0% |
  Atomic Hamiltonian force:          0.002     0.002   0.0% |
  Initial:                           0.000     0.000   0.0% |
   Get density matrix:               0.000     0.000   0.0% |
  Paw correction:                    0.002     0.002   0.0% |
  Potential:                         0.468     0.468   3.1% ||
  TCI derivative:                    0.034     0.034   0.2% |
  Wait for sum:                      0.000     0.000   0.0% |
LCAO WFS Initialize:                 0.783     0.085   0.6% |
 Hamiltonian:                        0.698     0.000   0.0% |
  Atomic:                            0.093     0.001   0.0% |
   XC Correction:                    0.092     0.092   0.6% |
  Calculate atomic Hamiltonians:     0.008     0.008   0.1% |
  Communicate:                       0.000     0.000   0.0% |
  Hartree integrate/restrict:        0.041     0.041   0.3% |
  Initialize Hamiltonian:            0.000     0.000   0.0% |
  Poisson:                           0.243     0.017   0.1% |
   Communicate bwd 0:                0.028     0.028   0.2% |
   Communicate bwd 1:                0.018     0.018   0.1% |
   Communicate fwd 0:                0.028     0.028   0.2% |
   Communicate fwd 1:                0.029     0.029   0.2% |
   fft:                              0.036     0.036   0.2% |
   fft2:                             0.087     0.087   0.6% |
  XC 3D grid:                        0.302     0.302   2.0% ||
  vbar:                              0.010     0.010   0.1% |
P tci:                               0.019     0.019   0.1% |
SCF-cycle:                           8.975     0.006   0.0% |
 Density:                            1.736     0.000   0.0% |
  Atomic density matrices:           0.009     0.009   0.1% |
  Mix:                               0.709     0.709   4.8% |-|
  Multipole moments:                 0.002     0.002   0.0% |
  Normalize:                         0.003     0.003   0.0% |
  Pseudo density:                    1.013     0.012   0.1% |
   Calculate density matrix:         0.000     0.000   0.0% |
   Construct density:                1.000     1.000   6.7% |--|
   Symmetrize density:               0.000     0.000   0.0% |
 Hamiltonian:                        6.240     0.001   0.0% |
  Atomic:                            0.838     0.009   0.1% |
   XC Correction:                    0.829     0.829   5.6% |-|
  Calculate atomic Hamiltonians:     0.074     0.074   0.5% |
  Communicate:                       0.000     0.000   0.0% |
  Hartree integrate/restrict:        0.421     0.421   2.8% ||
  Poisson:                           2.129     0.118   0.8% |
   Communicate bwd 0:                0.254     0.254   1.7% ||
   Communicate bwd 1:                0.161     0.161   1.1% |
   Communicate fwd 0:                0.222     0.222   1.5% ||
   Communicate fwd 1:                0.262     0.262   1.8% ||
   fft:                              0.327     0.327   2.2% ||
   fft2:                             0.785     0.785   5.3% |-|
  XC 3D grid:                        2.727     2.727  18.3% |------|
  vbar:                              0.050     0.050   0.3% |
 LCAO eigensolver:                   0.993     0.001   0.0% |
  Calculate projections:             0.001     0.001   0.0% |
  DenseAtomicCorrection:             0.003     0.003   0.0% |
  Distribute overlap matrix:         0.000     0.000   0.0% |
  Orbital Layouts:                   0.004     0.004   0.0% |
  Potential matrix:                  0.983     0.983   6.6% |--|
ST tci:                              0.005     0.005   0.0% |
Set symmetry:                        0.001     0.001   0.0% |
TCI: Evaluate splines:               0.018     0.018   0.1% |
mktci:                               0.001     0.001   0.0% |
Other:                               4.416     4.416  29.7% |-----------|
-----------------------------------------------------------
Total:                                        14.867 100.0%

Memory usage: 390.89 MiB
Date: Tue Feb  4 11:41:39 2020
