thermo_style custom step time  dt time temp ke  pe etotal press
#run 1
run 100
Per MPI rank memory allocation (min/avg/max) = 18.67 | 18.67 | 18.67 Mbytes
Step Time Dt Time Temp KinEng PotEng TotEng Press 
       0            0        0.002            0           15    581.66871   -2669999.8   -2669418.1    130.18372 
      10         0.02        0.002         0.02    10.119203    392.40158   -2669810.3   -2669417.9    266.80307 
      20         0.04        0.002         0.04    2.8731188    111.41355     -2669529   -2669417.6    445.20451 
      30         0.06        0.002         0.06     3.060412     118.6764   -2669536.4   -2669417.7     383.5615 
      40         0.08        0.002         0.08    7.9529424    308.39852   -2669726.3   -2669417.9    223.46932 
      50          0.1        0.002          0.1    9.7028709     376.2571   -2669794.2   -2669417.9    229.63843 
      60         0.12        0.002         0.12    8.2907794    321.49913   -2669739.3   -2669417.8    338.19777 
      70         0.14        0.002         0.14    7.6969147     298.4703   -2669716.3   -2669417.8    351.41232 
      80         0.16        0.002         0.16    7.4697401    289.66094   -2669707.5   -2669417.9    296.22371 
      90         0.18        0.002         0.18     6.196854    240.30107   -2669658.1   -2669417.8    291.55779 
     100          0.2        0.002          0.2    6.2059184    240.65257   -2669658.4   -2669417.8    306.34486 
Loop time of 5.5512 on 8 procs for 100 steps with 300000 atoms

Performance: 3.113 ns/day, 7.710 hours/ns, 18.014 timesteps/s
99.2% CPU use with 8 MPI tasks x 1 OpenMP threads

MPI task timing breakdown:
Section |  min time  |  avg time  |  max time  |%varavg| %total
---------------------------------------------------------------
Pair    | 5.3066     | 5.3387     | 5.3719     |   1.0 | 96.17
Neigh   | 0          | 0          | 0          |   0.0 |  0.00
Comm    | 0.071682   | 0.104      | 0.13562    |   7.3 |  1.87
Output  | 0.0011904  | 0.0013872  | 0.0014911  |   0.3 |  0.02
Modify  | 0.054548   | 0.05863    | 0.063642   |   1.1 |  1.06
Other   |            | 0.04847    |            |       |  0.87

Nlocal:    37500 ave 37500 max 37500 min
Histogram: 8 0 0 0 0 0 0 0 0 0
Nghost:    22594 ave 22594 max 22594 min
Histogram: 8 0 0 0 0 0 0 0 0 0
Neighs:    1.2e+06 ave 1.20935e+06 max 1.18974e+06 min
Histogram: 2 0 1 1 0 0 0 2 0 2

Total # of neighbors = 9600000
Ave neighs/atom = 32
Neighbor list builds = 0
Dangerous builds = 0

reset_timestep 0
#dump 1  PKA custom 10 dump.PKA_${proj1} id type x y z xs ys zs vx vy vz
dump 2  all custom ${dump_freq1} dump.collision_${proj1} id type x y z
dump 2  all custom 500 dump.collision_${proj1} id type x y z
dump 2  all custom 500 dump.collision_cascade-energy id type x y z
write_data data.before_event
restart ${res_freq1} restart/restart.${proj1}
restart 1000 restart/restart.${proj1}
restart 1000 restart/restart.cascade-energy
velocity PKA set  ${pkavx1} ${pkavy1} ${pkavz1}   units box
velocity PKA set  267.238986163688 ${pkavy1} ${pkavz1}   units box
velocity PKA set  267.238986163688 0 ${pkavz1}   units box
velocity PKA set  267.238986163688 0 0   units box
fix 2 all dt/reset ${dt_freq1} NULL  ${tmax1} ${xmax1} units box #fix ID group-ID dt/reset N Tmin Tmax Xmax keyword values ...
fix 2 all dt/reset 10 NULL  ${tmax1} ${xmax1} units box 
fix 2 all dt/reset 10 NULL  0.001 ${xmax1} units box 
fix 2 all dt/reset 10 NULL  0.001 0.1 units box 
fix 1com all recenter INIT INIT INIT
variable ttt equal time-${discard_tstep1}*${discard_nrun1}
variable ttt equal time-0.002*${discard_nrun1}
variable ttt equal time-0.002*0
compute pe all pe/atom
compute ke all ke/atom
variable te atom c_pe+c_ke
compute kemax all reduce max c_ke
compute temax all reduce max v_te
thermo_style custom step dt time temp ke pe etotal press c_kemax c_temax
fix printe all print ${thermo_freq1} "$(time),$(etotal),$(press),$(temp),$(c_kemax),$(c_temax)" file runstats.out
fix printe all print 10 "$(time),$(etotal),$(press),$(temp),$(c_kemax),$(c_temax)" file runstats.out

label loopa
variable a loop 1000
    run ${nrun1}
    run 500
Per MPI rank memory allocation (min/avg/max) = 23.61 | 23.61 | 23.61 Mbytes
Step Dt Time Temp KinEng PotEng TotEng Press c_kemax c_temax 
       0 0.00037419417          0.2    23.751324    921.02682   -2669658.4   -2668737.4    459.12688    680.37496    671.47721 
0.2037419416695255836,-2668737.3835213654675,458.71537079653256797,23.864820585407766629,672.49102405951134642,667.57798903659363532
      10 0.00037638395   0.20374194    23.864821    925.42797   -2669662.8   -2668737.4    458.71537    672.49102    667.57799 
0.2075057812068836216,-2668739.2862185779959,526.05410510918568434,20.848864327271122932,531.54374520669148296,592.30032683989099951
      20 0.00042335514   0.20750578    20.848864    808.47547   -2669547.8   -2668739.3    526.05411    531.54375    592.30033 
0.21173933263648447856,-2668737.5207006582059,468.87291100948851863,24.153104532882458955,647.63219244837705446,652.49101591216731322
      30 0.00038213412   0.21173933    24.153105    936.60702   -2669674.1   -2668737.5    468.87291    647.63219    652.49102 
0.21556067385065144637,-2668738.1125916056335,479.1717205632288028,23.734433498083532754,611.25244257856127206,633.91603666962134866
      40 0.00039478809   0.21556067    23.734433    920.37183   -2669658.5   -2668738.1    479.17172    611.25244    633.91604 
0.21950855474950989321,-2668738.55537505541,489.55900043227239848,23.587948710276002373,583.63754614164861323,615.60322252525804743
      50 0.00039711184   0.21950855    23.587949    914.69145   -2669653.2   -2668738.6      489.559    583.63755    615.60322 
0.22347967317584399582,-2668737.4542326061055,451.26267709257155047,25.488691832806420479,643.069597649574348,648.13621473175442134
      60 0.00038489774   0.22347967    25.488692    988.39831   -2669725.9   -2668737.5    451.26268     643.0696    648.13621 
0.22732865054030038099,-2668738.0611576284282,555.70970664885771839,20.324079597900283289,388.06414622808301829,496.56918701967384777
      70 0.00045636184   0.22732865     20.32408    788.12542   -2669526.2   -2668738.1    555.70971    388.06415    496.56919 
0.23189226892207204234,-2668736.5822490234859,445.91914115546791209,26.220341673333518173,642.02296496565520556,643.22147976177825512
      80 0.00038521134   0.23189227    26.220342    1016.7702   -2669753.4   -2668736.6    445.91914    642.02296    643.22148 
0.235744382330917851,-2668734.6394849652424,590.99116757344916095,18.850869234603756297,219.57103507880040638,362.81421210076723582
      90 0.00054840779   0.23574438    18.850869    730.99739   -2669465.6   -2668734.6    590.99117    219.57104    362.81421 
0.24122846023428473616,-2668738.5282230707817,459.92136927890459219,25.976128784684554773,601.23386046117184378,603.01637322803526331
     100 0.00039806375   0.24122846    25.976129    1007.3001   -2669745.8   -2668738.5    459.92137    601.23386    603.01637 
0.24520909773762339379,-2668737.1720740147866,581.28969937525425848,20.051211545043468476,223.6508691400543114,335.20138973883001654
     110 0.00064096628    0.2452091    20.051212    777.54416   -2669514.7   -2668737.2     581.2897    223.65087    335.20139 
0.25161876058689247593,-2668740.463783396408,501.31550272886931907,24.605600794511659046,420.79237226132886462,421.40615365359934685
     120 0.00047581751   0.25161876    24.605601    954.15388   -2669694.6   -2668740.5     501.3155    420.79237    421.40615 
0.25637693565087843472,-2668740.2203452452086,563.11053457826176327,22.034633941262132595,344.93258503613026278,377.10833270062124711
     130 0.00052554176   0.25637694    22.034634    854.45715   -2669594.7   -2668740.2    563.11053    344.93259    377.10833 
0.26163235329079609359,-2668740.5174220036715,564.73976112786283466,22.015673114405252875,338.26220779023503837,344.14181254330640058
     140 0.00053069819   0.26163235    22.015673    853.72188   -2669594.2   -2668740.5    564.73976    338.26221    344.14181 
0.26693933519132478915,-2668740.201397493016,589.98234319225161926,20.749938556874059969,269.21075651919306893,295.15665573995920568
     150 0.00059487832   0.26693934    20.749939    804.63934   -2669544.8   -2668740.2    589.98234    269.21076    295.15666 
0.27288811839405752169,-2668740.3080839342438,580.06054313768049724,20.897937404870031486,244.17430900945976191,251.87103259369905572
     160 0.00062463219   0.27288812    20.897937    810.37842   -2669550.7   -2668740.3    580.06054    244.17431    251.87103 
0.2791344403054987211,-2668739.7208967381157,627.16219210220754121,18.058310710547729627,95.23147348263715628,140.4761632293145226
     170        0.001   0.27913444    18.058311    700.26362     -2669440   -2668739.7    627.16219    95.231473    140.47616 
0.28913444030549872998,-2668740.9464981108904,615.92496936475254188,18.64006611662479429,171.62921671001140567,174.29233071446628855
     180 0.00074503853   0.28913444    18.640066    722.82289   -2669463.8   -2668740.9    615.92497    171.62922    174.29233 
0.29658482565269062015,-2668740.8764554504305,593.02643187109345035,19.024144684992627674,119.52872155059588977,134.28608719725900755
     190 0.00089276716   0.29658483    19.024145    737.71665   -2669478.6   -2668740.9    593.02643    119.52872    134.28609 
0.30551249729873136696,-2668740.8737164167687,556.49844035362912109,19.941652241842394488,102.66937657372130843,104.68049622447821889
     200 0.00096328297    0.3055125    19.941652    773.29568   -2669514.2   -2668740.9    556.49844    102.66938     104.6805 
0.31514532702453734725,-2668740.6430664253421,613.08351248552230572,18.715092428655534462,58.75594175876943126,64.211295020034015124
     210        0.001   0.31514533    18.715092    725.73225   -2669466.4   -2668740.6    613.08351    58.755942    64.211295 
0.32514532702453735613,-2668740.608959893696,621.6428495330461601,18.64492499661029612,39.458837577869424251,38.522122312820613388
     220        0.001   0.32514533    18.644925     723.0113   -2669463.6   -2668740.6    621.64285    39.458838    38.522122 
0.33514532702453736501,-2668740.5831595575437,669.29975911612780237,17.614496279253110345,27.322291133426631404,27.290367395550092056
     230        0.001   0.33514533    17.614496    683.05343   -2669423.6   -2668740.6    669.29976    27.322291    27.290367 
0.34514532702453737389,-2668740.5024630236439,744.28982759248117418,15.910334037128466278,22.345771676610873158,19.809817012082536536
     240        0.001   0.34514533    15.910334    616.96957   -2669357.5   -2668740.5    744.28983    22.345772    19.809817 
0.35514532702453732727,-2668740.3879616898485,742.32628345401531078,15.78314875406793405,29.260787516403162556,24.23396885373372811
     250        0.001   0.35514533    15.783149    612.03759   -2669352.4   -2668740.4    742.32628    29.260788    24.233969 
0.36514532702453733615,-2668740.3034933912568,743.7765130477009734,15.406194569804297245,21.90146531207696512,19.93154365172523157
     260        0.001   0.36514533    15.406195    597.42009   -2669337.7   -2668740.3    743.77651    21.901465    19.931544 
0.37514532702453734503,-2668740.2395514021628,766.23005919091713167,14.665898848865115411,12.409799142966095431,10.885282906962718386
     270        0.001   0.37514533    14.665899    568.71297     -2669309   -2668740.2    766.23006    12.409799    10.885283 
0.38514532702453735391,-2668740.3530778456479,752.24235057146643157,14.763894036697454482,13.403773890009734515,7.3741253534134552083
     280        0.001   0.38514533    14.763894    572.51302   -2669312.9   -2668740.4    752.24235    13.403774    7.3741254 
0.39514532702453736279,-2668740.3592908964492,747.19533699805231208,14.49835166757319449,10.843161221322736409,5.8599583171711469021
     290        0.001   0.39514533    14.498352    562.21584   -2669302.6   -2668740.4    747.19534    10.843161    5.8599583 
0.40514532702453731616,-2668740.2914257645607,772.73851494184043531,13.677804456362501639,9.1312635225733185251,4.8848318350477297756
     300        0.001   0.40514533    13.677804    530.39673   -2669270.7   -2668740.3    772.73851    9.1312635    4.8848318 
0.41514532702453732504,-2668740.3600773909129,802.13212555598795461,12.938881105964568974,11.279015223091755971,5.1431712143109242774
     310        0.001   0.41514533    12.938881    501.74282   -2669242.1   -2668740.4    802.13213    11.279015    5.1431712 
0.42514532702453733393,-2668740.3709003608674,828.64872451511962481,12.485972754790036987,9.1537410115861916893,3.7914091416583968197
     320        0.001   0.42514533    12.485973    484.17998   -2669224.6   -2668740.4    828.64872     9.153741    3.7914091 
0.43514532702453734281,-2668740.3344733593985,853.73929272496252452,12.41553942701954405,7.9168598348357521743,1.8943565661296091207
     330        0.001   0.43514533    12.415539    481.44872   -2669221.8   -2668740.3    853.73929    7.9168598    1.8943566 
0.44514532702453735169,-2668740.3201364632696,862.96005111296699397,12.841206357449459929,9.2862006152260629932,3.0926231184433445875
     340        0.001   0.44514533    12.841206     497.9552   -2669238.3   -2668740.3    862.96005    9.2862006    3.0926231 
0.45514532702453736057,-2668740.3481109659187,858.24776109065192031,13.512556518108450376,8.551926318109014602,2.6364452088474958913
     350        0.001   0.45514533    13.512557    523.98876   -2669264.3   -2668740.3    858.24776    8.5519263    2.6364452 
0.46514532702453736945,-2668740.3687517135404,862.36332877402810482,13.960551459274949337,6.9739291639713005821,0.65937895599323237406
     360        0.001   0.46514533    13.960551    541.36107   -2669281.7   -2668740.4    862.36333    6.9739292   0.65937896 
0.47514532702453737834,-2668740.3291076919995,867.27444591737344126,14.165408804482138905,6.8188274413136218399,0.7127702702414673297
     370        0.001   0.47514533    14.165409    549.30501   -2669289.6   -2668740.3    867.27445    6.8188274   0.71277027 
0.48514532702453738722,-2668740.3086066977121,873.70308315388842857,14.048614513331195042,7.4503248235945482847,1.185164749359307379
     380        0.001   0.48514533    14.048615    544.77597   -2669285.1   -2668740.3    873.70308    7.4503248    1.1851647 
0.49514532702453734059,-2668740.2918719020672,883.82087625926533292,13.705918437883928718,5.3242738542699985516,-0.36679936709062133104
     390        0.001   0.49514533    13.705918    531.48693   -2669271.8   -2668740.3    883.82088    5.3242739  -0.36679937 
0.50514532702453740498,-2668740.2699599280022,895.20473663736095205,13.277450902841946956,5.5004155480144554247,-0.84657002769931644082
     400        0.001   0.50514533    13.277451    514.87185   -2669255.1   -2668740.3    895.20474    5.5004155  -0.84657003 
0.51514532702453741386,-2668740.2958368198015,898.68946557038430001,12.992292957311891044,5.9969186454788676599,-0.52723412999750074448
     410        0.001   0.51514533    12.992293    503.81402   -2669244.1   -2668740.3    898.68947    5.9969186  -0.52723413 
0.52514532702453731172,-2668740.2945431740955,893.95353416001989899,12.92660145545559125,5.5592279692928894264,-0.80514564891817830272
     420        0.001   0.52514533    12.926601    501.26664   -2669241.6   -2668740.3    893.95353     5.559228  -0.80514565 
0.5351453270245373206,-2668740.3121719062328,886.68429640999625008,13.108156723886391859,4.1240306282865129006,-2.182485659701711711
     430        0.001   0.53514533    13.108157    508.30698   -2669248.6   -2668740.3     886.6843    4.1240306   -2.1824857 
0.54514532702453732949,-2668740.3144557806663,873.84714656674532307,13.364087723854048306,4.1226789664296967786,-2.3506829787105560925
     440        0.001   0.54514533    13.364088    518.23145   -2669258.5   -2668740.3    873.84715     4.122679    -2.350683 
0.55514532702453733837,-2668740.2897405978292,860.76916026231663182,13.616805936606272809,4.2272587640883854121,-2.3732038829384105583
     450        0.001   0.55514533    13.616806    528.03133   -2669268.3   -2668740.3    860.76916    4.2272588   -2.3732039 
0.56514532702453734725,-2668740.2865192461759,857.81290800149645293,13.772070361720682996,3.9420230719435820355,-2.5691290325221243229
     460        0.001   0.56514533     13.77207    534.05216   -2669274.3   -2668740.3    857.81291    3.9420231    -2.569129 
0.57514532702453735613,-2668740.291825955268,854.62756772398995508,13.885952868764965373,3.1325065637156694898,-3.2463579141099194736
     470        0.001   0.57514533    13.885953    538.46829   -2669278.8   -2668740.3    854.62757    3.1325066   -3.2463579 
0.58514532702453736501,-2668740.3008126881905,853.01584866285315911,13.975473922531719495,2.8102965880286729927,-3.8016830981949025769
     480        0.001   0.58514533    13.975474    541.93973   -2669282.2   -2668740.3    853.01585    2.8102966   -3.8016831 
0.59514532702453737389,-2668740.2927157846279,848.59305474398024671,14.060674710848484636,3.3535677422567009565,-3.797135294841442299
     490        0.001   0.59514533    14.060675    545.24364   -2669285.5   -2668740.3    848.59305    3.3535677   -3.7971353 
0.60514532702453727175,-2668740.2943613394164,845.32649600427430414,14.125686688195909113,3.6858483469968752466,-3.5518338753432003863
     500        0.001   0.60514533    14.125687    547.76467   -2669288.1   -2668740.3     845.3265    3.6858483   -3.5518339 
Loop time of 32.2129 on 8 procs for 500 steps with 300000 atoms

Performance: 1.341 ns/day, 17.896 hours/ns, 15.522 timesteps/s
99.2% CPU use with 8 MPI tasks x 1 OpenMP threads

MPI task timing breakdown:
Section |  min time  |  avg time  |  max time  |%varavg| %total
---------------------------------------------------------------
Pair    | 28.549     | 28.813     | 29.093     |   3.3 | 89.44
Neigh   | 1.7487     | 1.7788     | 1.8421     |   2.1 |  5.52
Comm    | 0.40848    | 0.7068     | 1.0023     |  24.2 |  2.19
Output  | 0.11196    | 0.11374    | 0.11401    |   0.2 |  0.35
Modify  | 0.59327    | 0.61406    | 0.63038    |   1.7 |  1.91
Other   |            | 0.1868     |            |       |  0.58

Nlocal:    37500 ave 37617 max 37236 min
Histogram: 1 0 0 1 0 0 0 2 1 3
Nghost:    22580.1 ave 22833 max 22476 min
Histogram: 4 0 1 1 0 0 1 0 0 1
Neighs:    1.20005e+06 ave 1.21412e+06 max 1.1881e+06 min
Histogram: 2 1 1 0 0 0 0 3 0 1

Total # of neighbors = 9600416
Ave neighs/atom = 32.0014
Neighbor list builds = 53
Dangerous builds = 12
    write_data data.after_event
    if "${ttt} > ${tmax}" then quit  # Quit calculation after 6 ps, should be enough
next a
jump input.${proj1} loopa
jump input.cascade-energy loopa
variable a loop 1000
    run ${nrun1}
    run 500
Per MPI rank memory allocation (min/avg/max) = 25.11 | 25.11 | 25.11 Mbytes
Step Dt Time Temp KinEng PotEng TotEng Press c_kemax c_temax 
     500        0.001   0.60514533    14.125687    547.76467   -2669288.1   -2668740.3     845.3265    3.6858483   -3.5518339 
0.61514532702453728064,-2668740.2968277535401,842.44496606857899224,14.13556025030993446,3.822276168644886063,-3.3692155797789369309
     510        0.001   0.61514533     14.13556    548.14754   -2669288.4   -2668740.3    842.44497    3.8222762   -3.3692156 
0.62514532702453728952,-2668740.2940960223787,832.42855765693468584,14.093112731514599645,4.6784893437429655449,-2.9596735651029808523
     520        0.001   0.62514533    14.093113    546.50152   -2669286.8   -2668740.3    832.42856    4.6784893   -2.9596736 
0.6351453270245372984,-2668740.2917156754993,823.89945239032340396,13.995666512359722589,5.3610899544467720546,-2.6538504591890408335
     530        0.001   0.63514533    13.995667    542.72276     -2669283   -2668740.3    823.89945      5.36109   -2.6538505 
0.64514532702453730728,-2668740.2901830472983,810.44686740222175558,13.871047307621884315,5.3200608636099078197,-2.7116589057483393432
     540        0.001   0.64514533    13.871047    537.89028   -2669278.2   -2668740.3    810.44687    5.3200609   -2.7116589 
0.65514532702453731616,-2668740.2885434664786,800.82656813669132134,13.764737985720858049,4.6230086460457133768,-3.0914788268895820877
     550        0.001   0.65514533    13.764738    533.76783   -2669274.1   -2668740.3    800.82657    4.6230086   -3.0914788 
0.66514532702453732504,-2668740.2869475060143,797.35047480689524946,13.7547645451629581,3.4151969933821866299,-3.7596759659435812218
     560        0.001   0.66514533    13.754765    533.38108   -2669273.7   -2668740.3    797.35047     3.415197    -3.759676 
0.67514532702453733393,-2668740.2874558302574,797.03779692626017095,13.896385020386230025,2.6081202804676859586,-4.0749739995207940879
     570        0.001   0.67514533    13.896385    538.87283   -2669279.2   -2668740.3     797.0378    2.6081203    -4.074974 
0.68514532702453723179,-2668740.2903950656764,797.54288666752131576,14.173404608016445749,2.5047228324207320149,-4.0656180316092047633
     580        0.001   0.68514533    14.173405    549.61507   -2669289.9   -2668740.3    797.54289    2.5047228    -4.065618 
0.69514532702453724067,-2668740.2934473007917,797.35123837760249899,14.49149629041625964,2.8402033584291856982,-3.9655582558870721144
     590        0.001   0.69514533    14.491496       561.95   -2669302.2   -2668740.3    797.35124    2.8402034   -3.9655583 
0.70514532702453724955,-2668740.2967463978566,793.53967253594294107,14.712878110760291506,3.2444358159467769909,-3.8562026770997936964
     600        0.001   0.70514533    14.712878    570.53473   -2669310.8   -2668740.3    793.53967    3.2444358   -3.8562027 
0.71514532702453725843,-2668740.296231077984,791.74457277504075137,14.737586951082134235,3.4664283609634329864,-3.8859177416721149001
     610        0.001   0.71514533    14.737587    571.49288   -2669311.8   -2668740.3    791.74457    3.4664284   -3.8859177 
0.72514532702453726731,-2668740.2899751281366,790.68377920343425558,14.58927895020774379,3.7708171540443502501,-3.783199867666811933
     620        0.001   0.72514533    14.589279    565.74181     -2669306   -2668740.3    790.68378    3.7708172   -3.7831999 
0.73514532702453727619,-2668740.2940371129662,788.5497880419025023,14.339434533720620379,4.1244509732026806148,-3.8288884324130258996
     630        0.001   0.73514533    14.339435    556.05336   -2669296.3   -2668740.3    788.54979     4.124451   -3.8288884 
0.74514532702453728508,-2668740.2908620322123,787.27726058679468224,14.100487012585361413,4.2444700339871515027,-3.8707255739513142245
     640        0.001   0.74514533    14.100487    546.78748   -2669287.1   -2668740.3    787.27726      4.24447   -3.8707256 
0.75514532702453729396,-2668740.2913756947964,781.16483459166124703,13.993080744333521892,4.1071388353977020813,-3.917284628577193839
     650        0.001   0.75514533    13.993081    542.62249   -2669282.9   -2668740.3    781.16483    4.1071388   -3.9172846 
0.76514532702453730284,-2668740.2929081139155,772.98668759218821833,14.023612895504461662,3.6668161464511412895,-3.9451160781449030601
     660        0.001   0.76514533    14.023613    543.80646   -2669284.1   -2668740.3    772.98669    3.6668161   -3.9451161 
0.77514532702453731172,-2668740.293653447181,764.31368012935490697,14.150025031698264755,2.8117435846622642615,-3.9197712001993312292
     670        0.001   0.77514533    14.150025    548.70846     -2669289   -2668740.3    764.31368    2.8117436   -3.9197712 
0.78514532702453720958,-2668740.2967965858988,756.17765241181029978,14.344040980116680828,2.8609908676839173047,-3.7907149019840624682
     680        0.001   0.78514533    14.344041    556.23199   -2669296.5   -2668740.3    756.17765    2.8609909   -3.7907149 
0.79514532702453721846,-2668740.3000646466389,754.66014016623034877,14.519258363936344836,3.1536347682981729079,-3.662480316827470439
     690        0.001   0.79514533    14.519258    563.02656   -2669303.3   -2668740.3    754.66014    3.1536348   -3.6624803 
0.80514532702453722735,-2668740.2972647505812,761.91168139499461631,14.579708233065991507,3.166546601255687321,-3.6992258575994148018
     700        0.001   0.80514533    14.579708    565.37068   -2669305.7   -2668740.3    761.91168    3.1665466   -3.6992259 
0.81514532702453723623,-2668740.2945392807014,772.04275077676811634,14.598496323977666833,2.9273910714412432199,-3.9389514578102300391
     710        0.001   0.81514533    14.598496    566.09924   -2669306.4   -2668740.3    772.04275    2.9273911   -3.9389515 
0.82514532702453724511,-2668740.29909502808,776.87936389117612634,14.697530082339905988,2.5307236353279849439,-4.2902026736006915186
     720        0.001   0.82514533     14.69753    569.93956   -2669310.2   -2668740.3    776.87936    2.5307236   -4.2902027 
0.83514532702453725399,-2668740.3024053699337,769.58067872795584208,14.913370475917886893,2.7397670032721443967,-4.5971057414782467987
     730        0.001   0.83514533     14.91337     578.3094   -2669318.6   -2668740.3    769.58068     2.739767   -4.5971057 
0.84514532702453726287,-2668740.3060796828941,758.80641712891042516,15.113952893873133121,3.1740678971209277393,-4.7917142477953955648
     740        0.001   0.84514533    15.113953    586.08757   -2669326.4   -2668740.3    758.80642    3.1740679   -4.7917142 
0.85514532702453727175,-2668740.3059844430536,747.20899358415408642,15.165852348382069081,3.1071843390052564793,-4.7218651237064106496
     750        0.001   0.85514533    15.165852    588.10012   -2669328.4   -2668740.3    747.20899    3.1071843   -4.7218651 
0.86514532702453728064,-2668740.306099132169,745.87648940134135955,15.045911552225184948,3.1943741617233039065,-4.4511740084541502327
     760        0.001   0.86514533    15.045912    583.44907   -2669323.8   -2668740.3    745.87649    3.1943742    -4.451174 
0.87514532702453728952,-2668740.3012292706408,752.45659479560481486,14.802490734818444906,3.2556722539748514933,-4.3437777238143651104
     770        0.001   0.87514533    14.802491    574.00972   -2669314.3   -2668740.3    752.45659    3.2556723   -4.3437777 
0.8851453270245372984,-2668740.2995721646585,759.19929715917771773,14.597547029413894037,3.0915039324194637516,-4.3648071010581945828
     780        0.001   0.88514533    14.597547    566.06243   -2669306.4   -2668740.3     759.1993    3.0915039   -4.3648071 
0.89514532702453730728,-2668740.3002028227784,759.35186596009100413,14.519747517842500173,2.8382437556397102085,-4.4703803676231865794
     790        0.001   0.89514533    14.519748    563.04552   -2669303.3   -2668740.3    759.35187    2.8382438   -4.4703804 
0.90514532702453731616,-2668740.3006099294871,758.42583617401555784,14.573043439406243138,2.6207246767972836032,-4.5788823683457309244
     800        0.001   0.90514533    14.573043    565.11223   -2669305.4   -2668740.3    758.42584    2.6207247   -4.5788824 
0.91514532702453732504,-2668740.3026298489422,757.90811463191369057,14.738298497663484099,2.4823369587704173789,-4.6343701196128854747
     810        0.001   0.91514533    14.738298    571.52048   -2669311.8   -2668740.3    757.90811     2.482337   -4.6343701 
0.92514532702453733393,-2668740.3046892299317,756.32800894863009944,14.944478527888806596,2.3642488036366824389,-4.6787107089726163167
     820        0.001   0.92514533    14.944479    579.51571   -2669319.8   -2668740.3    756.32801    2.3642488   -4.6787107 
0.93514532702453734281,-2668740.3127313898876,759.086974232499756,15.107960299170855478,2.2164913390915534919,-4.7575400588342962038
     830        0.001   0.93514533     15.10796    585.85519   -2669326.2   -2668740.3    759.08697    2.2164913   -4.7575401 
0.94514532702453735169,-2668740.3004284328781,757.04645712243336675,15.147310588121786878,2.0152155870096382095,-4.8790224613168966528
     840        0.001   0.94514533    15.147311    587.38111   -2669327.7   -2668740.3    757.04646    2.0152156   -4.8790225 
0.95514532702453736057,-2668740.2956030014902,757.37403756388812326,15.043111475928322207,2.565817971328987035,-4.6629123836398997938
     850        0.001   0.95514533    15.043111    583.34049   -2669323.6   -2668740.3    757.37404     2.565818   -4.6629124 
0.96514532702453725843,-2668740.2949882471003,760.97723736506588921,14.924807755678255461,2.966025710068321608,-4.6115160342715348918
     860        0.001   0.96514533    14.924808    578.75292     -2669319   -2668740.3    760.97724    2.9660257    -4.611516 
0.97514532702453726731,-2668740.2965155779384,762.32424693498535362,14.837526547577445157,3.1588499482698124687,-4.716695574254549328
     870        0.001   0.97514533    14.837527    575.36833   -2669315.7   -2668740.3    762.32425    3.1588499   -4.7166956 
0.98514532702453727619,-2668740.2942031729035,758.23021164810722894,14.767969770265461094,2.8174200938399316385,-5.0241435446922180219
     880        0.001   0.98514533     14.76797    572.67107     -2669313   -2668740.3    758.23021    2.8174201   -5.0241435 
0.99514532702453728508,-2668740.2957422235049,752.95124045722491246,14.761498334384278053,2.1923273088014929577,-5.2151688786840892931
     890        0.001   0.99514533    14.761498    572.42012   -2669312.7   -2668740.3    752.95124    2.1923273   -5.2151689 
1.005145327024537405,-2668740.2950223051012,748.87190381874256673,14.798455890258477297,2.4491091255887207367,-4.5958272785842959607
     900        0.001    1.0051453    14.798456    573.85325   -2669314.1   -2668740.3     748.8719    2.4491091   -4.5958273 
1.0151453270245371918,-2668740.2960231257603,746.27564804535575149,14.882296076359493142,2.6116616496192528452,-4.161469442096103144
     910        0.001    1.0151453    14.882296     577.1044   -2669317.4   -2668740.3    746.27565    2.6116616   -4.1614694 
1.0251453270245372007,-2668740.279327258002,749.74610299681933157,14.969289730603239974,2.4078491252125959754,-4.2489902702586359595
     920        0.001    1.0251453     14.96929    580.47783   -2669320.8   -2668740.3     749.7461    2.4078491   -4.2489903 
1.0351453270245372096,-2668740.2874434338883,753.43298094844067236,15.055127919168286965,2.0841714651529814617,-4.0731692992929167119
     930        0.001    1.0351453    15.055128    583.80646   -2669324.1   -2668740.3    753.43298    2.0841715   -4.0731693 
1.0451453270245372185,-2668740.2925702095963,757.68314100670545486,15.121733065963596232,2.044838795589185132,-3.9435343401479037162
     940        0.001    1.0451453    15.121733    586.38927   -2669326.7   -2668740.3    757.68314    2.0448388   -3.9435343 
1.0551453270245372273,-2668740.2922068866901,760.39770456681344513,15.155282805435154714,2.735214546907642319,-4.0300787104462587607
     950        0.001    1.0551453    15.155283    587.69026     -2669328   -2668740.3     760.3977    2.7352145   -4.0300787 
1.0651453270245372362,-2668740.2855637650937,759.24804391567170114,15.18793303059861266,3.0710452129161467383,-4.0055679374983421681
     960        0.001    1.0651453    15.187933    588.95636   -2669329.2   -2668740.3    759.24804    3.0710452   -4.0055679 
1.0751453270245372451,-2668740.2823991295882,759.06184604220732126,15.208778909262587575,3.1282954226582573298,-4.1884827621862354974
     970        0.001    1.0751453    15.208779    589.76472     -2669330   -2668740.3    759.06185    3.1282954   -4.1884828 
1.085145327024537254,-2668740.272534574382,759.74776218551494367,15.237433156954399038,3.211809983681688685,-3.2621820529499325758
     980        0.001    1.0851453    15.237433    590.87588   -2669331.1   -2668740.3    759.74776      3.21181   -3.2621821 
1.0951453270245372629,-2668740.2703819009475,756.65798636045121839,15.242985098978053315,2.7674412576848017586,-3.4851311706139025404
     990        0.001    1.0951453    15.242985    591.09117   -2669331.4   -2668740.3    756.65799    2.7674413   -3.4851312 
1.1051453270245372718,-2668740.2918745218776,754.56825564635835235,15.169515932217080945,2.6750092537168983498,-2.776165898305731794
    1000        0.001    1.1051453    15.169516    588.24219   -2669328.5   -2668740.3    754.56826    2.6750093   -2.7761659 
Loop time of 31.1825 on 8 procs for 500 steps with 300000 atoms

Performance: 1.385 ns/day, 17.324 hours/ns, 16.035 timesteps/s
99.3% CPU use with 8 MPI tasks x 1 OpenMP threads

MPI task timing breakdown:
Section |  min time  |  avg time  |  max time  |%varavg| %total
---------------------------------------------------------------
Pair    | 28.699     | 28.953     | 29.22      |   3.6 | 92.85
Neigh   | 0.60258    | 0.61361    | 0.6391     |   1.4 |  1.97
Comm    | 0.3892     | 0.65248    | 0.9109     |  24.6 |  2.09
Output  | 0.12604    | 0.12781    | 0.12807    |   0.2 |  0.41
Modify  | 0.59896    | 0.61175    | 0.62451    |   1.2 |  1.96
Other   |            | 0.2237     |            |       |  0.72

Nlocal:    37500 ave 37733 max 37302 min
Histogram: 1 2 0 1 0 0 1 2 0 1
Nghost:    22590.8 ave 22786 max 22360 min
Histogram: 1 0 1 2 0 0 1 0 2 1
Neighs:    1.20002e+06 ave 1.21402e+06 max 1.18321e+06 min
Histogram: 1 0 2 0 1 0 1 1 0 2

Total # of neighbors = 9600179
Ave neighs/atom = 32.0006
Neighbor list builds = 18
Dangerous builds = 0
    write_data data.after_event
    if "${ttt} > ${tmax}" then quit  # Quit calculation after 6 ps, should be enough
next a
jump input.${proj1} loopa
jump input.cascade-energy loopa
variable a loop 1000
    run ${nrun1}
    run 500
Per MPI rank memory allocation (min/avg/max) = 25.12 | 25.12 | 25.12 Mbytes
Step Dt Time Temp KinEng PotEng TotEng Press c_kemax c_temax 
    1000        0.001    1.1051453    15.169516    588.24219   -2669328.5   -2668740.3    754.56826    2.6750093   -2.7761659 
1.1151453270245372806,-2668740.2977378093638,755.30925051088433975,15.018215200892269579,2.5307548393820766819,-3.162484102271090336
    1010        0.001    1.1151453    15.018215    582.37506   -2669322.7   -2668740.3    755.30925    2.5307548   -3.1624841 
1.1251453270245372895,-2668740.2998347394168,754.91021853077938886,14.934983064015465715,3.1669788561636735835,-4.1133465426848356827
    1020        0.001    1.1251453    14.934983    579.14749   -2669319.4   -2668740.3    754.91022    3.1669789   -4.1133465 
1.1351453270245372984,-2668740.3191848197021,754.51112032776791239,14.891475407171952838,3.4809926524542964543,-3.6863931569043404401
    1030        0.001    1.1351453    14.891475    577.46036   -2669317.8   -2668740.3    754.51112    3.4809927   -3.6863932 
1.1451453270245373073,-2668740.3183002411388,753.88006442452683586,14.919615794858245295,3.4649703398870550508,-3.6676436985852132189
    1040        0.001    1.1451453    14.919616    578.55158   -2669318.9   -2668740.3    753.88006    3.4649703   -3.6676437 
1.1551453270245373162,-2668740.3496517273597,755.73016678498868259,15.056355047681725168,3.0629462573644139489,-3.7302900608196556398
    1050        0.001    1.1551453    15.056355    583.85404   -2669324.2   -2668740.3    755.73017    3.0629463   -3.7302901 
1.165145327024537325,-2668740.3466120702215,754.94958550827993804,15.252846663746117528,2.3017386578341207937,-4.6923627549315707341
    1060        0.001    1.1651453    15.252847    591.47358   -2669331.8   -2668740.3    754.94959    2.3017387   -4.6923628 
1.1751453270245373339,-2668740.3307690019719,748.40223666503766253,15.477188245942667066,3.0539856744969258173,-4.2704649444880251608
    1070        0.001    1.1751453    15.477188    600.17308   -2669340.5   -2668740.3    748.40224    3.0539857   -4.2704649 
1.1851453270245373428,-2668740.3313121399842,746.82849439675248959,15.556487751801597597,3.9309661238007826967,-3.9468903350286899112
    1080        0.001    1.1851453    15.556488    603.24815   -2669343.6   -2668740.3    746.82849    3.9309661   -3.9468903 
1.1951453270245373517,-2668740.3301545549184,749.68423450568263888,15.465753376699513666,4.1051170064111905944,-3.9723421356869392795
    1090        0.001    1.1951453    15.465753    599.72966   -2669340.1   -2668740.3    749.68423     4.105117   -3.9723421 
1.2051453270245373606,-2668740.3271145476028,752.74903735286375195,15.253410540085894809,3.2634643734355539557,-4.4577910384234211705
    1100        0.001    1.2051453    15.253411    591.49545   -2669331.8   -2668740.3    752.74904    3.2634644    -4.457791 
1.2151453270245373695,-2668740.3323208047077,756.53297569971357461,15.034189573590323263,1.9616567158621975864,-5.0907203661170701281
    1110        0.001    1.2151453     15.03419    582.99451   -2669323.3   -2668740.3    756.53298    1.9616567   -5.0907204 
1.2251453270245371563,-2668740.3316527171992,760.92431769474490011,14.931866096448930037,1.648225916299856042,-5.2726323496049642969
    1120        0.001    1.2251453    14.931866    579.02662   -2669319.4   -2668740.3    760.92432    1.6482259   -5.2726323 
1.2351453270245373872,-2668740.3411569595337,762.57809162916498735,14.981104735624830582,1.904371867469386137,-5.2731455869639516365
    1130        0.001    1.2351453    14.981105    580.93599   -2669321.3   -2668740.3    762.57809    1.9043719   -5.2731456 
1.2451453270245371741,-2668740.3434236091562,759.25229122750738497,15.116241279596531299,2.1218850377335645163,-5.2249636925632012563
    1140        0.001    1.2451453    15.116241    586.17631   -2669326.5   -2668740.3    759.25229     2.121885   -5.2249637 
1.2551453270245371829,-2668740.3444670797326,752.17799112372119907,15.263901592244581096,2.1821502345648311483,-5.101465416393027752
    1150        0.001    1.2551453    15.263902    591.90227   -2669332.2   -2668740.3    752.17799    2.1821502   -5.1014654 
1.2651453270245371918,-2668740.3463122169487,746.24603041815589677,15.363983317282297492,1.9985811965563176074,-5.1996501500993801415
    1160        0.001    1.2651453    15.363983    595.78323   -2669336.1   -2668740.3    746.24603    1.9985812   -5.1996502 
1.2751453270245372007,-2668740.3472181628458,747.0228922814408179,15.340950247171171839,1.7838462593391399835,-5.4692015667728233197
    1170        0.001    1.2751453     15.34095    594.89005   -2669335.2   -2668740.3    747.02289    1.7838463   -5.4692016 
1.2851453270245372096,-2668740.3431678987108,751.62036549987578837,15.189099862275574182,1.6577785254775927459,-5.5756875159926382324
    1180        0.001    1.2851453      15.1891    589.00161   -2669329.3   -2668740.3    751.62037    1.6577785   -5.5756875 
1.2951453270245372185,-2668740.3407804546878,761.28534559197271392,15.030642297373931981,1.5192626945829865726,-5.7515380107580273972
    1190        0.001    1.2951453    15.030642    582.85696   -2669323.2   -2668740.3    761.28535    1.5192627    -5.751538 
1.3051453270245372273,-2668740.3395582707599,768.00196706297538185,14.965854448814818412,1.269708798268383898,-5.9378703704296720289
    1200        0.001    1.3051453    14.965854    580.34462   -2669320.7   -2668740.3    768.00197    1.2697088   -5.9378704 
1.3151453270245372362,-2668740.3409860227257,764.4236227638228911,15.040297809801412399,1.2691233834917923229,-6.0808361426168309194
    1210        0.001    1.3151453    15.040298    583.23138   -2669323.6   -2668740.3    764.42362    1.2691234   -6.0808361 
1.3251453270245372451,-2668740.3445745673962,756.75271937391892152,15.196809300103973683,1.5174982810203434536,-5.9674091065865830785
    1220        0.001    1.3251453    15.196809    589.30057   -2669329.6   -2668740.3    756.75272    1.5174983   -5.9674091 
1.335145327024537254,-2668740.3462281329557,749.88456924372962931,15.308876100094037653,1.5531999125796536187,-5.883601717076190063
    1230        0.001    1.3351453    15.308876    593.64628     -2669334   -2668740.3    749.88457    1.5531999   -5.8836017 
1.3451453270245372629,-2668740.3459917823784,745.97161128372374606,15.306412450096477329,1.7475805291550554621,-5.8543571477236646672
    1240        0.001    1.3451453    15.306412    593.55075   -2669333.9   -2668740.3    745.97161    1.7475805   -5.8543571 
1.3551453270245372718,-2668740.3423567092977,747.31739069536456554,15.213930136072303156,1.7177146503758677909,-5.8750472048663340274
    1250        0.001    1.3551453     15.21393    589.96448   -2669330.3   -2668740.3    747.31739    1.7177147   -5.8750472 
1.3651453270245372806,-2668740.3403316261247,748.29962048263018914,15.149559167176526842,1.6798126572800646805,-5.9474417992493329166
    1260        0.001    1.3651453    15.149559    587.46831   -2669327.8   -2668740.3    748.29962    1.6798127   -5.9474418 
1.3751453270245372895,-2668740.3448533597402,748.10144206629013297,15.189316276789657678,1.808643883878414016,-5.975052739546997671
    1270        0.001    1.3751453    15.189316       589.01   -2669329.4   -2668740.3    748.10144    1.8086439   -5.9750527 
1.3851453270245372984,-2668740.3439218173735,744.61138387700736985,15.309233000381466283,2.0166517257999800883,-5.6285586153329489889
    1280        0.001    1.3851453    15.309233    593.66012     -2669334   -2668740.3    744.61138    2.0166517   -5.6285586 
1.3951453270245373073,-2668740.3445508088917,740.54349787467356236,15.430901643379533184,2.0387273980820621588,-5.0410653798706839268
    1290        0.001    1.3951453    15.430902    598.37818   -2669338.7   -2668740.3     740.5435    2.0387274   -5.0410654 
1.4051453270245373162,-2668740.3445059312508,736.08983236500318981,15.516337391719400074,2.2865140472465559363,-4.3562553117785043355
    1300        0.001    1.4051453    15.516337     601.6912     -2669342   -2668740.3    736.08983     2.286514   -4.3562553 
1.415145327024537325,-2668740.344317517709,738.43559467588841017,15.561562845400613853,2.6145079826400525747,-3.5980470478938526568
    1310        0.001    1.4151453    15.561563    603.44495   -2669343.8   -2668740.3    738.43559     2.614508    -3.598047 
1.4251453270245373339,-2668740.3448318778537,740.85611695701686585,15.573850931160968969,3.1038407417841820113,-2.8461974910388945226
    1320        0.001    1.4251453    15.573851    603.92146   -2669344.3   -2668740.3    740.85612    3.1038407   -2.8461975 
1.4351453270245373428,-2668740.3458827952854,741.65970255198146788,15.532406147652007888,3.7014979572361923488,-2.2014209168718270604
    1330        0.001    1.4351453    15.532406    602.31431   -2669342.7   -2668740.3     741.6597     3.701498   -2.2014209 
1.4451453270245373517,-2668740.3443229189143,745.17758350012002211,15.415712199457669129,4.1057155114241874472,-1.7999759059485915813
    1340        0.001    1.4451453    15.415712    597.78917   -2669338.1   -2668740.3    745.17758    4.1057155   -1.7999759 
1.4551453270245373606,-2668740.3420454044826,745.49569241073129433,15.278657155165014103,4.0106369626796105621,-1.8231205490713575657
    1350        0.001    1.4551453    15.278657    592.47446   -2669332.8   -2668740.3    745.49569     4.010637   -1.8231205 
1.4651453270245373695,-2668740.3419266822748,742.89499676350214941,15.195041751548894027,3.5420826535079528163,-2.152010142710687024
    1360        0.001    1.4651453    15.195042    589.23203   -2669329.6   -2668740.3      742.895    3.5420827   -2.1520101 
1.4751453270245371563,-2668740.3373261969537,743.32144987538629266,15.180967979810384705,2.728823955505957688,-2.8301680611530994902
    1370        0.001    1.4751453    15.180968    588.68627     -2669329   -2668740.3    743.32145     2.728824   -2.8301681 
1.4851453270245373872,-2668740.3337775962427,738.51922527296596854,15.228942835167375236,1.9377175730341646975,-3.7624726694893220191
    1380        0.001    1.4851453    15.228943    590.54664   -2669330.9   -2668740.3    738.51923    1.9377176   -3.7624727 
1.4951453270245371741,-2668740.3343618041836,734.04353831845844525,15.295094493738599084,1.8140617464549824156,-4.5667289843237757196
    1390        0.001    1.4951453    15.295094    593.11186   -2669333.4   -2668740.3    734.04354    1.8140617    -4.566729 
1.505145327024537405,-2668740.3346387869678,731.50092380790647439,15.355052879179359238,1.6714205684051526291,-5.2749506876977774184
    1400        0.001    1.5051453    15.355053    595.43692   -2669335.8   -2668740.3    731.50092    1.6714206   -5.2749507 
1.5151453270245371918,-2668740.3350227056071,732.33516062919557044,15.392429756283899422,1.5192033460695273384,-5.3961593223180344125
    1410        0.001    1.5151453     15.39243    596.88632   -2669337.2   -2668740.3    732.33516    1.5192033   -5.3961593 
1.5251453270245372007,-2668740.333309313748,733.19209584227235155,15.409337030728263329,1.4242356325761971192,-5.4436780202201031642
    1420        0.001    1.5251453    15.409337    597.54195   -2669337.9   -2668740.3     733.1921    1.4242356    -5.443678 
1.5351453270245372096,-2668740.333311852999,732.31520256434885141,15.454927829806866413,1.4112753512810454204,-5.5750421654247341863
    1430        0.001    1.5351453    15.454928    599.30987   -2669339.6   -2668740.3     732.3152    1.4112754   -5.5750422 
1.5451453270245372185,-2668740.3344592112117,730.66679636279911847,15.531459399819267375,1.4159239435509447524,-5.6592714669995984877
    1440        0.001    1.5451453    15.531459     602.2776   -2669342.6   -2668740.3     730.6668    1.4159239   -5.6592715 
1.5551453270245372273,-2668740.3356026643887,731.13128782804426464,15.598214990451106488,1.3607342302622686958,-5.4045796648103738846
    1450        0.001    1.5551453    15.598215    604.86624   -2669345.2   -2668740.3    731.13129    1.3607342   -5.4045797 
1.5651453270245372362,-2668740.3363422085531,731.75514334840477204,15.614345672467823789,1.3553970842715719058,-5.173279053264655758
    1460        0.001    1.5651453    15.614346    605.49176   -2669345.8   -2668740.3    731.75514    1.3553971   -5.1732791 
1.5751453270245372451,-2668740.335985428188,732.89143514692739245,15.55288472153253565,1.4823222873916577225,-4.9903058420247123905
    1470        0.001    1.5751453    15.552885    603.10843   -2669343.4   -2668740.3    732.89144    1.4823223   -4.9903058 
1.585145327024537254,-2668740.3340742434375,733.5500065145517965,15.432108305788030833,1.5352771006332206483,-4.8831665841150773133
    1480        0.001    1.5851453    15.432108    598.42497   -2669338.8   -2668740.3    733.55001    1.5352771   -4.8831666 
1.5951453270245372629,-2668740.3332039462402,733.33725858742116088,15.315789302576256148,1.522264899272486538,-4.8692720511660079197
    1490        0.001    1.5951453    15.315789    593.91436   -2669334.2   -2668740.3    733.33726    1.5222649   -4.8692721 
1.6051453270245372718,-2668740.3322661160491,732.92730373596089066,15.246515971635515641,1.5158805274118161144,-4.9466264338378023169
    1500        0.001    1.6051453    15.246516    591.22809   -2669331.6   -2668740.3     732.9273    1.5158805   -4.9466264 
Loop time of 31.0213 on 8 procs for 500 steps with 300000 atoms

Performance: 1.393 ns/day, 17.234 hours/ns, 16.118 timesteps/s
99.3% CPU use with 8 MPI tasks x 1 OpenMP threads

MPI task timing breakdown:
Section |  min time  |  avg time  |  max time  |%varavg| %total
---------------------------------------------------------------
Pair    | 28.678     | 28.948     | 29.226     |   3.7 | 93.32
Neigh   | 0.46898    | 0.47698    | 0.49631    |   1.3 |  1.54
Comm    | 0.37316    | 0.6472     | 0.9161     |  25.1 |  2.09
Output  | 0.11068    | 0.11242    | 0.11268    |   0.2 |  0.36
Modify  | 0.60123    | 0.60991    | 0.61929    |   0.9 |  1.97
Other   |            | 0.2264     |            |       |  0.73

Nlocal:    37500 ave 37681 max 37165 min
Histogram: 1 0 0 1 1 0 0 2 1 2
Nghost:    22592.5 ave 22929 max 22412 min
Histogram: 2 1 2 0 0 1 1 0 0 1
Neighs:    1.20001e+06 ave 1.21358e+06 max 1.17903e+06 min
Histogram: 1 0 0 1 1 0 2 0 1 2

Total # of neighbors = 9600095
Ave neighs/atom = 32.0003
Neighbor list builds = 14
Dangerous builds = 0
    write_data data.after_event
    if "${ttt} > ${tmax}" then quit  # Quit calculation after 6 ps, should be enough
next a
jump input.${proj1} loopa
jump input.cascade-energy loopa
variable a loop 1000
    run ${nrun1}
    run 500
Per MPI rank memory allocation (min/avg/max) = 25.12 | 25.12 | 25.12 Mbytes
Step Dt Time Temp KinEng PotEng TotEng Press c_kemax c_temax 
    1500        0.001    1.6051453    15.246516    591.22809   -2669331.6   -2668740.3     732.9273    1.5158805   -4.9466264 
1.6151453270245372806,-2668740.3324439511634,731.85466112273616091,15.253812598258235766,1.6055739569864306837,-5.0961259714769937545
    1510        0.001    1.6151453    15.253813    591.51104   -2669331.8   -2668740.3    731.85466     1.605574    -5.096126 
1.6251453270245372895,-2668740.3343210695311,729.55575661650391339,15.328195241719773989,1.6253168276460032704,-5.075077366765450293
    1520        0.001    1.6251453    15.328195    594.39544   -2669334.7   -2668740.3    729.55576    1.6253168   -5.0750774 
1.6351453270245372984,-2668740.3356105657294,728.70301824983323513,15.406257227335261817,1.7187839886776918874,-5.0318883344501008636
    1530        0.001    1.6351453    15.406257    597.42252   -2669337.8   -2668740.3    728.70302     1.718784   -5.0318883 
1.6451453270245373073,-2668740.3405280453153,730.63080883664895282,15.454029833599102872,1.8164838529917328724,-5.0323576500227362729
    1540        0.001    1.6451453     15.45403    599.27504   -2669339.6   -2668740.3    730.63081    1.8164839   -5.0323577 
1.6551453270245373162,-2668740.339706923347,730.60304743127710481,15.501693902788069579,1.8704431672663373032,-4.9206445111589554031
    1550        0.001    1.6551453    15.501694    601.12336   -2669341.5   -2668740.3    730.60305    1.8704432   -4.9206445 
1.665145327024537325,-2668740.3393840137869,727.63890270003116711,15.526288282865799317,1.7249408155258765252,-4.9650176351334964764
    1560        0.001    1.6651453    15.526288    602.07708   -2669342.4   -2668740.3     727.6389    1.7249408   -4.9650176 
1.6751453270245373339,-2668740.3424797970802,725.66638596517702808,15.527669935698753534,1.4125619037970220671,-5.2716447535436650185
    1570        0.001    1.6751453     15.52767    602.13065   -2669342.5   -2668740.3    725.66639    1.4125619   -5.2716448 
1.6851453270245373428,-2668740.343278884422,723.60587332115528625,15.518094186301118143,1.7053537895932362467,-4.9523045198787603027
    1580        0.001    1.6851453    15.518094    601.75933   -2669342.1   -2668740.3    723.60587    1.7053538   -4.9523045 
1.6951453270245373517,-2668740.342779356055,724.60987512521921872,15.508599518346967372,2.1541725013105827991,-4.5662183400631377594
    1590        0.001    1.6951453      15.5086    601.39114   -2669341.7   -2668740.3    724.60988    2.1541725   -4.5662183 
1.7051453270245373606,-2668740.3431095443666,724.59174207565990855,15.513792100280783259,2.7720100754910736995,-4.1496702721319929097
    1600        0.001    1.7051453    15.513792     601.5925   -2669341.9   -2668740.3    724.59174    2.7720101   -4.1496703 
1.7151453270245373695,-2668740.343523315154,723.44030249600996285,15.523994665201724885,3.5155484566855381701,-3.7361410137051009883
    1610        0.001    1.7151453    15.523995    601.98813   -2669342.3   -2668740.3     723.4403    3.5155485    -3.736141 
1.7251453270245371563,-2668740.3429441945627,724.25085703148283756,15.530004156144796568,4.3150655059847782269,-3.3521722917052638735
    1620        0.001    1.7251453    15.530004    602.22117   -2669342.6   -2668740.3    724.25086    4.3150655   -3.3521723 
1.7351453270245373872,-2668740.3432364338078,725.24998048253678462,15.551004761176669078,5.091528480065659501,-3.0166771200412307863
    1630        0.001    1.7351453    15.551005    603.03553   -2669343.4   -2668740.3    725.24998    5.0915285   -3.0166771 
1.7451453270245371741,-2668740.3444145470858,723.18944708988226466,15.582917208568563439,5.5883938408119515628,-2.8580260227152542996
    1640        0.001    1.7451453    15.582917    604.27303   -2669344.6   -2668740.3    723.18945    5.5883938    -2.858026 
1.7551453270245371829,-2668740.3453321065754,720.81768568336894987,15.582349884246495364,5.2289642602449806219,-3.1611792044588913342
    1650        0.001    1.7551453     15.58235    604.25103   -2669344.6   -2668740.3    720.81769    5.2289643   -3.1611792 
1.7651453270245371918,-2668740.3435769411735,721.23146098748588884,15.518138490343195812,3.9840251099680035196,-3.7684841431325208916
    1660        0.001    1.7651453    15.518138    601.76104   -2669342.1   -2668740.3    721.23146    3.9840251   -3.7684841 
1.7751453270245372007,-2668740.3425748120062,722.29060293916791125,15.444319956435924368,2.621992292221693166,-4.3916475522913014373
    1670        0.001    1.7751453     15.44432    598.89851   -2669339.2   -2668740.3     722.2906    2.6219923   -4.3916476 
1.7851453270245372096,-2668740.3418679721653,723.93615995549691888,15.407028351129627097,1.3801141636198690499,-5.0318647671967902113
    1680        0.001    1.7851453    15.407028    597.45242   -2669337.8   -2668740.3    723.93616    1.3801142   -5.0318648 
1.7951453270245372185,-2668740.3428904474713,722.55595524945715624,15.428371439044148872,0.76081970086504091544,-5.4850450782818986895
    1690        0.001    1.7951453    15.428371    598.28006   -2669338.6   -2668740.3    722.55596    0.7608197   -5.4850451 
1.8051453270245372273,-2668740.3442509435117,719.99953127635603778,15.474817188142345969,0.97915476443078730551,-5.6242644066424682947
    1700        0.001    1.8051453    15.474817    600.08113   -2669340.4   -2668740.3    719.99953   0.97915476   -5.6242644 
1.8151453270245372362,-2668740.3440695521422,720.66792858631458785,15.499675619008964844,1.0397382467499032277,-5.7706996220792436958
    1710        0.001    1.8151453    15.499676    601.04509   -2669341.4   -2668740.3    720.66793    1.0397382   -5.7706996 
1.8251453270245372451,-2668740.3434552079998,722.827754855017929,15.503326934542604576,1.3637994431854569832,-5.5913544288245695668
    1720        0.001    1.8251453    15.503327    601.18668   -2669341.5   -2668740.3    722.82775    1.3637994   -5.5913544 
1.835145327024537254,-2668740.3432122124359,721.38179888314334676,15.508934240540204641,2.1112777126831860919,-5.3930021472075218014
    1730        0.001    1.8351453    15.508934    601.40412   -2669341.7   -2668740.3     721.3818    2.1112777   -5.3930021 
1.8451453270245372629,-2668740.3437078837305,718.29515548604194919,15.527738705734064339,2.6638092259208874246,-5.2262428532126028458
    1740        0.001    1.8451453    15.527739    602.13332   -2669342.5   -2668740.3    718.29516    2.6638092   -5.2262429 
1.8551453270245372718,-2668740.3431806280278,717.70941894059103561,15.549617700665939068,2.7563210859800446606,-5.1355698235718092448
    1750        0.001    1.8551453    15.549618    602.98174   -2669343.3   -2668740.3    717.70942    2.7563211   -5.1355698 
1.8651453270245372806,-2668740.3435569996946,719.20554255790682419,15.582221827269465919,2.4224672146085293178,-5.1376110854073644418
    1760        0.001    1.8651453    15.582222    604.24606   -2669344.6   -2668740.3    719.20554    2.4224672   -5.1376111 
1.8751453270245372895,-2668740.3438027780503,721.73763186251267143,15.61016277923526907,1.8755572381889218381,-5.2171460875811010993
    1770        0.001    1.8751453    15.610163    605.32955   -2669345.7   -2668740.3    721.73763    1.8755572   -5.2171461 
1.8851453270245372984,-2668740.3444941067137,720.83315754093382566,15.617319847903017305,1.2536414634287011971,-5.3438592313597732542
    1780        0.001    1.8851453     15.61732    605.60709     -2669346   -2668740.3    720.83316    1.2536415   -5.3438592 
1.8951453270245373073,-2668740.3441186207347,717.57692180677452143,15.623910497254223984,0.73179617112365402676,-5.4925036097719175388
    1790        0.001    1.8951453     15.62391    605.86266   -2669346.2   -2668740.3    717.57692   0.73179617   -5.4925036 
1.9051453270245373162,-2668740.3446176275611,713.47688131675943168,15.639278403972705078,0.77166971129241579419,-5.6543359767605982924
    1800        0.001    1.9051453    15.639278     606.4586   -2669346.8   -2668740.3    713.47688   0.77166971    -5.654336 
1.915145327024537325,-2668740.3454415975139,712.16563305469003353,15.644388343888556037,0.81191392698876319045,-5.6639075083416434708
    1810        0.001    1.9151453    15.644388    606.65675     -2669347   -2668740.3    712.16563   0.81191393   -5.6639075 
1.9251453270245373339,-2668740.3445546529256,712.92294121444035682,15.616164818708650586,0.7792504306610527065,-5.6812175433466052255
    1820        0.001    1.9251453    15.616165     605.5623   -2669345.9   -2668740.3    712.92294   0.77925043   -5.6812175 
1.9351453270245373428,-2668740.3434725967236,715.56120683536687466,15.581101644947885632,0.76727898694206542185,-5.7376565328291420087
    1830        0.001    1.9351453    15.581102    604.20262   -2669344.5   -2668740.3    715.56121   0.76727899   -5.7376565 
1.9451453270245373517,-2668740.3433057586662,716.94240544316994601,15.576666491604738596,0.7781979721681813178,-5.8184463933343248954
    1840        0.001    1.9451453    15.576666    604.03064   -2669344.4   -2668740.3    716.94241   0.77819797   -5.8184464 
1.9551453270245373606,-2668740.3440186250955,716.23271071923670661,15.607148411638711138,0.80004067442222648321,-5.9145053447642457201
    1850        0.001    1.9551453    15.607148    605.21266   -2669345.6   -2668740.3    716.23271   0.80004067   -5.9145053 
1.9651453270245373695,-2668740.3452100665309,713.4391437841906054,15.647378762452627043,0.83016477031713975521,-5.9431847839966245317
    1860        0.001    1.9651453    15.647379    606.77271   -2669347.1   -2668740.3    713.43914   0.83016477   -5.9431848 
1.9751453270245371563,-2668740.3458947050385,711.46279982105136241,15.656613475160719773,0.75009888554386450199,-6.0135080000461549332
    1870        0.001    1.9751453    15.656613    607.13081   -2669347.5   -2668740.3     711.4628   0.75009889    -6.013508 
1.9851453270245373872,-2668740.3454214343801,711.57709141037196332,15.611541399311304801,0.65042277523943869966,-6.1481725626632064419
    1880        0.001    1.9851453    15.611541    605.38301   -2669345.7   -2668740.3    711.57709   0.65042278   -6.1481726 
1.9951453270245371741,-2668740.3433925011195,714.59653349872439776,15.536145565776488198,0.69493208602152567455,-6.2290800214295298787
    1890        0.001    1.9951453    15.536146    602.45932   -2669342.8   -2668740.3    714.59653   0.69493209     -6.22908 
2.005145327024537405,-2668740.3427150351927,713.26230157738064008,15.500782445774630602,0.84364130959448557778,-6.2236653134021953093
    1900        0.001    2.0051453    15.500782    601.08801   -2669341.4   -2668740.3     713.2623   0.84364131   -6.2236653 
2.0151453270245371918,-2668740.3434453881346,707.18043340517749584,15.532411408009734188,1.0267263766834784366,-6.2320127533494309446
    1910        0.001    2.0151453    15.532411    602.31452   -2669342.7   -2668740.3    707.18043    1.0267264   -6.2320128 
2.0251453270245374227,-2668740.3452613260597,700.5309437329086677,15.598133840408850759,1.0946951727980482882,-6.3021288538759305808
    1920        0.001    2.0251453    15.598134     604.8631   -2669345.2   -2668740.3    700.53094    1.0946952   -6.3021289 
2.0351453270245372096,-2668740.346296585165,697.46654659961109246,15.630831035477763535,0.98722600391674741882,-6.2457579624807042507
    1930        0.001    2.0351453    15.630831    606.13103   -2669346.5   -2668740.3    697.46655     0.987226    -6.245758 
2.0451453270245374405,-2668740.3457162901759,700.23067343877994517,15.591318089897781007,0.86109209430226341109,-6.0550817905519842554
    1940        0.001    2.0451453    15.591318     604.5988   -2669344.9   -2668740.3    700.23067   0.86109209   -6.0550818 
2.0551453270245372273,-2668740.344217825681,706.02692163925780733,15.502422690411071571,0.81196252615202413327,-5.8717611456405638393
    1950        0.001    2.0551453    15.502423    601.15162   -2669341.5   -2668740.3    706.02692   0.81196253   -5.8717611 
2.0651453270245374583,-2668740.3425442543812,710.84466112280881589,15.425651841146500232,0.62772783070210724787,-5.7350110955856008488
    1960        0.001    2.0651453    15.425652     598.1746   -2669338.5   -2668740.3    710.84466   0.62772783   -5.7350111 
2.0751453270245372451,-2668740.3432776536793,709.44080783512151811,15.415963942141900134,0.75385724917728247352,-5.6667078991482151551
    1970        0.001    2.0751453    15.415964    597.79893   -2669338.1   -2668740.3    709.44081   0.75385725   -5.6667079 
2.0851453270245370319,-2668740.3438340593129,703.83220517875906808,15.458376903885083564,0.81621211443857399903,-5.6767059966193853526
    1980        0.001    2.0851453    15.458377    599.44361   -2669339.8   -2668740.3    703.83221   0.81621211    -5.676706 
2.0951453270245372629,-2668740.3447392177768,699.32119238744280665,15.521569406631282817,0.73895817958428855476,-5.6358543149894995139
    1990        0.001    2.0951453    15.521569    601.89409   -2669342.2   -2668740.3    699.32119   0.73895818   -5.6358543 
2.1051453270245374938,-2668740.3345784493722,699.14682262633323262,15.569664099407077629,0.56560071676229994875,-5.4774762409117760953
    2000        0.001    2.1051453    15.569664     603.7591   -2669344.1   -2668740.3    699.14682   0.56560072   -5.4774762 
Loop time of 31.1265 on 8 procs for 500 steps with 300000 atoms

Performance: 1.388 ns/day, 17.293 hours/ns, 16.063 timesteps/s
99.2% CPU use with 8 MPI tasks x 1 OpenMP threads

MPI task timing breakdown:
Section |  min time  |  avg time  |  max time  |%varavg| %total
---------------------------------------------------------------
Pair    | 28.726     | 29.007     | 29.362     |   4.5 | 93.19
Neigh   | 0.39138    | 0.40319    | 0.41985    |   1.4 |  1.30
Comm    | 0.39461    | 0.75233    | 1.0315     |  28.0 |  2.42
Output  | 0.12511    | 0.12691    | 0.12718    |   0.2 |  0.41
Modify  | 0.59473    | 0.6081     | 0.61967    |   1.1 |  1.95
Other   |            | 0.2286     |            |       |  0.73

Nlocal:    37500 ave 37842 max 37149 min
Histogram: 1 2 1 0 0 0 1 0 1 2
Nghost:    22592.6 ave 22945 max 22251 min
Histogram: 2 1 0 1 0 0 0 1 2 1
Neighs:    1.20001e+06 ave 1.21944e+06 max 1.17792e+06 min
Histogram: 1 0 0 2 1 0 2 1 0 1

Total # of neighbors = 9600076
Ave neighs/atom = 32.0003
Neighbor list builds = 12
Dangerous builds = 0
    write_data data.after_event
    if "${ttt} > ${tmax}" then quit  # Quit calculation after 6 ps, should be enough
next a
jump input.${proj1} loopa
jump input.cascade-energy loopa
variable a loop 1000
    run ${nrun1}
    run 500
Per MPI rank memory allocation (min/avg/max) = 25.12 | 25.12 | 25.12 Mbytes
Step Dt Time Temp KinEng PotEng TotEng Press c_kemax c_temax 
    2000        0.001    2.1051453    15.569664     603.7591   -2669344.1   -2668740.3    699.14682   0.56560072   -5.4774762 
2.1151453270245372806,-2668740.3341562696733,699.25079671414880522,15.595178615764018204,0.54703677682068141408,-5.3376315575567021554
    2010        0.001    2.1151453    15.595179     604.7485   -2669345.1   -2668740.3     699.2508   0.54703678   -5.3376316 
2.1251453270245375116,-2668740.3325054310262,698.57134264018145586,15.609679750624273709,0.7644861844965158415,-5.2726030455352752568
    2020        0.001    2.1251453     15.60968    605.31082   -2669345.6   -2668740.3    698.57134   0.76448618    -5.272603 
2.1351453270245372984,-2668740.3325324603356,698.98749421022239403,15.588317369863117889,0.70764775003165747425,-5.2903327443428551646
    2030        0.001    2.1351453    15.588317    604.48243   -2669344.8   -2668740.3    698.98749   0.70764775   -5.2903327 
2.1451453270245375293,-2668740.331679398194,700.81146104598201418,15.532870555795510015,0.6189933551749301488,-5.3822393527949650149
    2040        0.001    2.1451453    15.532871    602.33232   -2669342.7   -2668740.3    700.81146   0.61899336   -5.3822394 
2.1551453270245373162,-2668740.3300719805993,701.60663814357633328,15.479939885019220469,0.56933414247828673105,-5.5264445042569736444
    2050        0.001    2.1551453     15.47994    600.27978   -2669340.6   -2668740.3    701.60664   0.56933414   -5.5264445 
2.1651453270245375471,-2668740.3297405983321,698.25068882874666087,15.483336135188826788,0.425777156745853258,-5.6963065452771655117
    2060        0.001    2.1651453    15.483336    600.41148   -2669340.7   -2668740.3    698.25069   0.42577716   -5.6963065 
2.1751453270245373339,-2668740.3312285440043,692.88569651596969834,15.550927778952088332,0.45634896921872630804,-5.6942848472641607316
    2070        0.001    2.1751453    15.550928    603.03254   -2669343.4   -2668740.3     692.8857   0.45634897   -5.6942848 
2.1851453270245375649,-2668740.3326283418573,688.8667265679657703,15.628632501864213822,0.57820957581861109897,-5.65721992915126215
    2080        0.001    2.1851453    15.628633    606.04577   -2669346.4   -2668740.3    688.86673   0.57820958   -5.6572199 
2.1951453270245373517,-2668740.3328317073174,688.94548871490189867,15.660609108230673314,0.61632263531239339649,-5.6921936274003694933
    2090        0.001    2.1951453    15.660609    607.28576   -2669347.6   -2668740.3    688.94549   0.61632264   -5.6921936 
2.2051453270245375826,-2668740.331777641084,692.58012142460506766,15.638991530951630082,0.59147393113489699079,-5.7783360232284657343
    2100        0.001    2.2051453    15.638992    606.44747   -2669346.8   -2668740.3    692.58012   0.59147393    -5.778336 
2.2151453270245373695,-2668740.3312183734961,696.04194812254138469,15.598642274609609615,0.56973887244119947315,-5.798224952712507374
    2110        0.001    2.2151453    15.598642    604.88281   -2669345.2   -2668740.3    696.04195   0.56973887    -5.798225 
2.2251453270245376004,-2668740.3305093725212,696.11124208782791811,15.569136124900408547,0.51783532799078779707,-5.8022554338889102965
    2120        0.001    2.2251453    15.569136    603.73863   -2669344.1   -2668740.3    696.11124   0.51783533   -5.8022554 
2.2351453270245373872,-2668740.3303053029813,692.31197753633466618,15.575206464573167153,0.43298940282193382201,-5.859011094763360461
    2130        0.001    2.2351453    15.575206    603.97402   -2669344.3   -2668740.3    692.31198    0.4329894   -5.8590111 
2.2451453270245376181,-2668740.331088706851,688.8306888895042448,15.619362309703625158,0.48207091399431473144,-5.9204709449877332972
    2140        0.001    2.2451453    15.619362    605.68629     -2669346   -2668740.3    688.83069   0.48207091   -5.9204709 
2.255145327024537405,-2668740.3321792986244,687.21858420819273761,15.670257783386524864,0.54489068525077422045,-5.8640740729286449096
    2150        0.001    2.2551453    15.670258    607.65991     -2669348   -2668740.3    687.21858   0.54489069   -5.8640741 
2.2651453270245376359,-2668740.332424165681,686.26098832232673885,15.687880394218462143,0.68674286616439783604,-5.8347397735909281025
    2160        0.001    2.2651453     15.68788    608.34328   -2669348.7   -2668740.3    686.26099   0.68674287   -5.8347398 
2.2751453270245374227,-2668740.332187299151,687.07278380124591877,15.658127091570905876,0.68640679250268687994,-5.8379822440132169703
    2170        0.001    2.2751453    15.658127    607.18951   -2669347.5   -2668740.3    687.07278   0.68640679   -5.8379822 
2.2851453270245376537,-2668740.3317259810865,688.44759682970470749,15.588966957062435625,0.56196775640755702863,-5.8770035026315792237
    2180        0.001    2.2851453    15.588967    604.50762   -2669344.8   -2668740.3     688.4476   0.56196776   -5.8770035 
2.2951453270245374405,-2668740.3306048419327,690.10880042040639637,15.503003813499624641,0.40858403839685486503,-5.8980553265603452573
    2190        0.001    2.2951453    15.503004    601.17415   -2669341.5   -2668740.3     690.1088   0.40858404   -5.8980553 
2.3051453270245376714,-2668740.3297956320457,692.09857068986718787,15.44203319049606371,0.40804155697227667554,-5.9250726715622210605
    2200        0.001    2.3051453    15.442033    598.80984   -2669339.1   -2668740.3    692.09857   0.40804156   -5.9250727 
2.3151453270245374583,-2668740.3300966070965,692.95584648045132781,15.43677178491016555,0.34561380085936305173,-5.9854388609293529555
    2210        0.001    2.3151453    15.436772    598.60581   -2669338.9   -2668740.3    692.95585    0.3456138   -5.9854389 
2.3251453270245376892,-2668740.3308179015294,690.4694915262896302,15.480456236305046858,0.42879456751452510455,-5.9173735140796912546
    2220        0.001    2.3251453    15.480456     600.2998   -2669340.6   -2668740.3    690.46949   0.42879457   -5.9173735 
2.335145327024537476,-2668740.3316916823387,687.21056286667544555,15.543896097250664567,0.47303920065136656481,-5.8847180136166414854
    2230        0.001    2.3351453    15.543896    602.75987   -2669343.1   -2668740.3    687.21056    0.4730392    -5.884718 
2.345145327024537707,-2668740.3323417841457,686.27101219958819911,15.59215875698042808,0.45574772466360113921,-5.8856988801887268892
    2240        0.001    2.3451453    15.592159     604.6314     -2669345   -2668740.3    686.27101   0.45574772   -5.8856989 
2.3551453270245374938,-2668740.3320192843676,686.590460329920802,15.603894420126502851,0.47010177190107726997,-5.9127930443343208466
    2250        0.001    2.3551453    15.603894    605.08648   -2669345.4   -2668740.3    686.59046   0.47010177    -5.912793 
2.3651453270245372806,-2668740.3314026813023,686.58755083296887278,15.590386726312585708,0.57745485968677656707,-5.9538179021878416819
    2260        0.001    2.3651453    15.590387    604.56268   -2669344.9   -2668740.3    686.58755   0.57745486   -5.9538179 
2.3751453270245375116,-2668740.3311074869707,685.49486977668925647,15.574352143753134925,0.54660604167187520908,-5.9955407855516451576
    2270        0.001    2.3751453    15.574352    603.94089   -2669344.3   -2668740.3    685.49487   0.54660604   -5.9955408 
2.3851453270245377425,-2668740.3311902591959,683.26654565299872957,15.567093908773490085,0.46541310125043638957,-6.0235582082596987874
    2280        0.001    2.3851453    15.567094    603.65943     -2669344   -2668740.3    683.26655    0.4654131   -6.0235582 
2.3951453270245375293,-2668740.330974180717,680.99973396349810173,15.567820304656896369,0.42882370869626945664,-6.0185760893171575958
    2290        0.001    2.3951453     15.56782     603.6876     -2669344   -2668740.3    680.99973   0.42882371   -6.0185761 
2.4051453270245373162,-2668740.3311261897907,678.27357290418331104,15.577843259630489214,0.41860386723129255904,-5.9697863850398196206
    2300        0.001    2.4051453    15.577843    604.07627   -2669344.4   -2668740.3    678.27357   0.41860387   -5.9697864 
2.4151453270245375471,-2668740.3315145531669,674.36695789701002468,15.590879805564339833,0.42411055183656271028,-5.9346655450541971888
    2310        0.001    2.4151453     15.59088     604.5818   -2669344.9   -2668740.3    674.36696   0.42411055   -5.9346655 
2.4251453270245373339,-2668740.33194307331,672.31884998261614328,15.590188326489796466,0.47311771005539332569,-5.8945066875013756302
    2320        0.001    2.4251453    15.590188    604.55499   -2669344.9   -2668740.3    672.31885   0.47311771   -5.8945067 
2.4351453270245375649,-2668740.3314299387857,672.55554571572952227,15.56393298746428222,0.398944796778673616,-5.8630923075994525462
    2330        0.001    2.4351453    15.563933    603.53686   -2669343.9   -2668740.3    672.55555    0.3989448   -5.8630923 
2.4451453270245373517,-2668740.3308119690046,672.8270032624606074,15.52825201134917954,0.35212847889393439349,-5.7671379599752734535
    2340        0.001    2.4451453    15.528252    602.15322   -2669342.5   -2668740.3      672.827   0.35212848    -5.767138 
2.4551453270245375826,-2668740.3302277168259,672.15341587331647588,15.508241174748000901,0.3844373194256893167,-5.6343643233253084546
    2350        0.001    2.4551453    15.508241    601.37725   -2669341.7   -2668740.3    672.15342   0.38443732   -5.6343643 
2.4651453270245373695,-2668740.3302383814007,668.36376659127461153,15.524351076966029339,0.43209932663637434791,-5.5728231836640196306
    2360        0.001    2.4651453    15.524351    602.00195   -2669342.3   -2668740.3    668.36377   0.43209933   -5.5728232 
2.4751453270245376004,-2668740.3308737138286,663.66950177142166467,15.574174825517086873,0.5413155456908340657,-5.5222116201850335315
    2370        0.001    2.4751453    15.574175    603.93402   -2669344.3   -2668740.3     663.6695   0.54131555   -5.5222116 
2.4851453270245373872,-2668740.3315334096551,662.28753311231889711,15.631840805979200226,0.51121808232459131638,-5.6078384466229618255
    2380        0.001    2.4851453    15.631841    606.17018   -2669346.5   -2668740.3    662.28753   0.51121808   -5.6078384 
2.4951453270245376181,-2668740.3318678792566,664.06842709594150165,15.670184968426665861,0.37484932528513542627,-5.7319581433509600998
    2390        0.001    2.4951453    15.670185    607.65709     -2669348   -2668740.3    664.06843   0.37484933   -5.7319581 
2.505145327024537405,-2668740.3314337404445,666.94065401008253957,15.679132730899771886,0.36696729494270041716,-5.7596213592145408811
    2400        0.001    2.5051453    15.679133    608.00406   -2669348.3   -2668740.3    666.94065   0.36696729   -5.7596214 
2.5151453270245376359,-2668740.3311863290146,669.13049559298292479,15.673003379797082246,0.52875263951984141642,-5.6133165073865365358
    2410        0.001    2.5151453    15.673003    607.76638   -2669348.1   -2668740.3     669.1305   0.52875264   -5.6133165 
2.5251453270245374227,-2668740.331426194869,669.45098178692103374,15.661469076822932323,0.71277258506832230633,-5.517788979482617151
    2420        0.001    2.5251453    15.661469     607.3191   -2669347.7   -2668740.3    669.45098   0.71277259    -5.517789 
2.5351453270245376537,-2668740.3313077976927,668.53774903347516556,15.63960012902812835,0.90442942315431773537,-5.5103438493917833441
    2430        0.001    2.5351453      15.6396    606.47107   -2669346.8   -2668740.3    668.53775   0.90442942   -5.5103438 
2.5451453270245374405,-2668740.3309591924772,667.65535358303259272,15.611031003366489855,1.0911734851295609161,-5.6014549443749670488
    2440        0.001    2.5451453    15.611031    605.36322   -2669345.7   -2668740.3    667.65535    1.0911735   -5.6014549 
2.5551453270245376714,-2668740.3306364174932,667.88461222434625597,15.58854486384674054,1.3069196446773114761,-5.7361022331931685869
    2450        0.001    2.5551453    15.588545    604.49126   -2669344.8   -2668740.3    667.88461    1.3069196   -5.7361022 
2.5651453270245374583,-2668740.3307867548428,668.31707070268464577,15.582882186556876292,1.6353138754733358429,-5.5551104190671773964
    2460        0.001    2.5651453    15.582882    604.27167   -2669344.6   -2668740.3    668.31707    1.6353139   -5.5551104 
2.5751453270245376892,-2668740.3307595262304,667.82179116552060805,15.592585511555338229,2.12909661938575967,-5.3014188247412104005
    2470        0.001    2.5751453    15.592586    604.64794     -2669345   -2668740.3    667.82179    2.1290966   -5.3014188 
2.585145327024537476,-2668740.3308768500574,666.72252783876808735,15.617151793797544812,2.7726409807004319674,-4.9630081184902454794
    2480        0.001    2.5851453    15.617152    605.60057   -2669345.9   -2668740.3    666.72253     2.772641   -4.9630081 
2.595145327024537707,-2668740.331094013527,665.61768415154654122,15.652659266564539209,3.4061841917422195358,-4.6079558888315776954
    2490        0.001    2.5951453    15.652659    606.97748   -2669347.3   -2668740.3    665.61768    3.4061842   -4.6079559 
2.6051453270245374938,-2668740.3312499411404,663.57187723466643092,15.688885328971057476,3.9041048614607807288,-4.330139564411148001
    2500        0.001    2.6051453    15.688885    608.38225   -2669348.7   -2668740.3    663.57188    3.9041049   -4.3301396 
Loop time of 30.4682 on 8 procs for 500 steps with 300000 atoms

Performance: 1.418 ns/day, 16.927 hours/ns, 16.411 timesteps/s
99.2% CPU use with 8 MPI tasks x 1 OpenMP threads

MPI task timing breakdown:
Section |  min time  |  avg time  |  max time  |%varavg| %total
---------------------------------------------------------------
Pair    | 28.338     | 28.626     | 28.953     |   3.8 | 93.95
Neigh   | 0.1988     | 0.20236    | 0.20885    |   0.8 |  0.66
Comm    | 0.36157    | 0.68812    | 0.96709    |  24.4 |  2.26
Output  | 0.10983    | 0.11162    | 0.11189    |   0.2 |  0.37
Modify  | 0.59336    | 0.60887    | 0.62049    |   1.2 |  2.00
Other   |            | 0.2314     |            |       |  0.76

Nlocal:    37500 ave 37816 max 37319 min
Histogram: 2 2 0 1 1 0 1 0 0 1
Nghost:    22593.1 ave 22774 max 22277 min
Histogram: 1 0 0 1 0 1 1 0 2 2
Neighs:    1.20001e+06 ave 1.21955e+06 max 1.18987e+06 min
Histogram: 3 0 0 2 1 1 0 0 0 1

Total # of neighbors = 9600089
Ave neighs/atom = 32.0003
Neighbor list builds = 6
Dangerous builds = 0
    write_data data.after_event
    if "${ttt} > ${tmax}" then quit  # Quit calculation after 6 ps, should be enough
next a
jump input.${proj1} loopa
jump input.cascade-energy loopa
variable a loop 1000
    run ${nrun1}
    run 500
Per MPI rank memory allocation (min/avg/max) = 25.12 | 25.12 | 25.12 Mbytes
Step Dt Time Temp KinEng PotEng TotEng Press c_kemax c_temax 
    2500        0.001    2.6051453    15.688885    608.38225   -2669348.7   -2668740.3    663.57188    3.9041049   -4.3301396 
2.6151453270245372806,-2668740.3309086547233,660.82176450408269375,15.72135000864497556,4.2716912064982270891,-4.1444379588329258723
    2510        0.001    2.6151453     15.72135    609.64116     -2669350   -2668740.3    660.82176    4.2716912    -4.144438 
2.6251453270245375116,-2668740.3305818722583,657.61575931456434319,15.761934115991021343,4.5407310372789924102,-4.0253977218414744854
    2520        0.001    2.6251453    15.761934    611.21493   -2669351.5   -2668740.3    657.61576     4.540731   -4.0253977 
2.6351453270245372984,-2668740.3313770494424,654.71255646107044868,15.818569920576905474,4.6377595486245226652,-4.0136869365429639345
    2530        0.001    2.6351453     15.81857    613.41115   -2669353.7   -2668740.3    654.71256    4.6377595   -4.0136869 
2.6451453270245375293,-2668740.3324673846364,653.7359315163868132,15.863370056060201563,4.0701053585809932045,-4.3603262714202708494
    2540        0.001    2.6451453     15.86337     615.1484   -2669355.5   -2668740.3    653.73593    4.0701054   -4.3603263 
2.6551453270245373162,-2668740.3315880303271,653.66593820187495112,15.870365046285701993,3.6685634201252965703,-4.9263485873540329152
    2550        0.001    2.6551453    15.870365    615.41965   -2669355.8   -2668740.3    653.66594    3.6685634   -4.9263486 
2.6651453270245375471,-2668740.3326114192605,655.40599296636082727,15.856267951029769492,3.4190870880313410929,-5.1383779105319842273
    2560        0.001    2.6651453    15.856268      614.873   -2669355.2   -2668740.3    655.40599    3.4190871   -5.1383779 
2.6751453270245373339,-2668740.3315403489396,657.1752713447607448,15.813117858118150849,2.6249784040086643344,-5.5968561388481061769
    2570        0.001    2.6751453    15.813118    613.19973   -2669353.5   -2668740.3    657.17527    2.6249784   -5.5968561 
2.6851453270245375649,-2668740.3313740096055,658.21451964832397152,15.759766421192566099,1.8178182806945046845,-5.8018645160949846584
    2580        0.001    2.6851453    15.759766    611.13087   -2669351.5   -2668740.3    658.21452    1.8178183   -5.8018645 
2.6951453270245373517,-2668740.3309080037288,658.85137847791827426,15.707498194361498633,1.0758854319777799713,-5.9247376803238456233
    2590        0.001    2.6951453    15.707498    609.10402   -2669349.4   -2668740.3    658.85138    1.0758854   -5.9247377 
2.7051453270245375826,-2668740.3302977215499,658.5601712984267806,15.675365189889426176,0.65437484303282666964,-6.0325231088900563847
    2600        0.001    2.7051453    15.675365    607.85797   -2669348.2   -2668740.3    658.56017   0.65437484   -6.0325231 
[...]
    7350        0.001    7.4551453    15.761599    611.20194   -2669351.5   -2668740.3    615.44329  0.037303472   -6.0181087 
7.4651453270245378135,-2668740.3312871786766,614.76730054785025459,15.764887875721935728,0.035444789537693456583,-6.0457038109130092352
    7360        0.001    7.4651453    15.764888    611.32947   -2669351.7   -2668740.3     614.7673   0.03544479   -6.0457038 
7.4751453270245376004,-2668740.3311413479969,614.11202072462037904,15.758018295658303032,0.031113161962455285897,-6.0766694695812111249
    7370        0.001    7.4751453    15.758018    611.06308   -2669351.4   -2668740.3    614.11202  0.031113162   -6.0766695 
7.4851453270245373872,-2668740.3309246860445,613.58533897905851973,15.746861327847227585,0.030201572088801739713,-6.1063538257002063503
    7380        0.001    7.4851453    15.746861    610.63044     -2669351   -2668740.3    613.58534  0.030201572   -6.1063538 
7.4951453270245371741,-2668740.3307238430716,613.13481444166279744,15.740149672726525765,0.031722576096548861513,-6.0778916135459768455
    7390        0.001    7.4951453     15.74015    610.37017   -2669350.7   -2668740.3    613.13481  0.031722576   -6.0778916 
7.5051453270245378491,-2668740.3306607767008,612.75122141346605531,15.745766550443232035,0.028136022737388331066,-6.0550453806794939382
    7400        0.001    7.5051453    15.745767    610.58798   -2669350.9   -2668740.3    612.75122  0.028136023   -6.0550454 
7.5151453270245376359,-2668740.3308185455389,612.42500577499879455,15.766004806370885305,0.031212145141404711024,-6.0407898536368191955
    7410        0.001    7.5151453    15.766005    611.37278   -2669351.7   -2668740.3    612.42501  0.031212145   -6.0407899 
7.5251453270245374227,-2668740.3311480432749,612.17588861907427145,15.794519190703820044,0.029971831623984365039,-6.035055882537240457
    7420        0.001    7.5251453    15.794519    612.47851   -2669352.8   -2668740.3    612.17589  0.029971832   -6.0350559 
7.5351453270245372096,-2668740.3314744057134,612.06949290734280567,15.818362030530357387,0.028437355942023269384,-6.0357367796959122686
    7430        0.001    7.5351453    15.818362    613.40309   -2669353.7   -2668740.3    612.06949  0.028437356   -6.0357368 
7.5451453270245378846,-2668740.3315926175565,612.20334256148021268,15.824878929335563171,0.035185745224979379786,-6.0396632656221465041
    7440        0.001    7.5451453    15.824879     613.6558     -2669354   -2668740.3    612.20334  0.035185745   -6.0396633 
7.5551453270245376714,-2668740.3314208756201,612.53994534439220843,15.809542342258133374,0.039750949709912539176,-6.0437021429246238213
    7450        0.001    7.5551453    15.809542    613.06108   -2669353.4   -2668740.3    612.53995   0.03975095   -6.0437021 
7.5651453270245374583,-2668740.3310648873448,612.99897506216211696,15.779098409989659402,0.042200907402962277437,-6.0456715425684208753
    7460        0.001    7.5651453    15.779098    611.88052   -2669352.2   -2668740.3    612.99898  0.042200907   -6.0456715 
7.5751453270245372451,-2668740.3307389961556,613.32655656524229926,15.74749657789468138,0.037089772318679332941,-6.0446817732753359564
    7470        0.001    7.5751453    15.747497    610.65507     -2669351   -2668740.3    613.32656  0.037089772   -6.0446818 
7.5851453270245379201,-2668740.3306211112067,613.25106752491365114,15.727561271279997257,0.02877685071154698071,-6.0409508898050070513
    7480        0.001    7.5851453    15.727561    609.88202   -2669350.2   -2668740.3    613.25107  0.028776851   -6.0409509 
7.595145327024537707,-2668740.330740285106,612.7564780339440631,15.724116494646972697,0.027995221422983954107,-6.0353953041486851916
    7490        0.001    7.5951453    15.724116    609.74844   -2669350.1   -2668740.3    612.75648  0.027995221   -6.0353953 
7.6051453270245374938,-2668740.3309844816104,612.09342787208345271,15.732729283946405019,0.035386771447765329179,-6.0292978023142360655
    7500        0.001    7.6051453    15.732729    610.08243   -2669350.4   -2668740.3    612.09343  0.035386771   -6.0292978 
Loop time of 29.8179 on 8 procs for 500 steps with 300000 atoms

Performance: 1.449 ns/day, 16.565 hours/ns, 16.768 timesteps/s
99.3% CPU use with 8 MPI tasks x 1 OpenMP threads

MPI task timing breakdown:
Section |  min time  |  avg time  |  max time  |%varavg| %total
---------------------------------------------------------------
Pair    | 27.996     | 28.238     | 28.511     |   3.6 | 94.70
Neigh   | 0.032357   | 0.033005   | 0.034176   |   0.3 |  0.11
Comm    | 0.31827    | 0.59263    | 0.83158    |  25.5 |  1.99
Output  | 0.11121    | 0.11297    | 0.11324    |   0.2 |  0.38
Modify  | 0.58697    | 0.60863    | 0.62452    |   1.8 |  2.04
Other   |            | 0.2323     |            |       |  0.78

Nlocal:    37500 ave 37613 max 37404 min
Histogram: 3 1 0 0 0 0 1 1 0 2
Nghost:    22593.2 ave 22689 max 22481 min
Histogram: 2 0 1 1 0 0 0 0 1 3
Neighs:    1.20001e+06 ave 1.21317e+06 max 1.18535e+06 min
Histogram: 1 0 2 1 0 1 0 0 1 2

Total # of neighbors = 9600083
Ave neighs/atom = 32.0003
Neighbor list builds = 1
Dangerous builds = 0
    write_data data.after_event
    if "${ttt} > ${tmax}" then quit  # Quit calculation after 6 ps, should be enough
next a
jump input.${proj1} loopa
jump input.cascade-energy loopa
variable a loop 1000
    run ${nrun1}
    run 500
Per MPI rank memory allocation (min/avg/max) = 25.12 | 25.12 | 25.12 Mbytes
Step Dt Time Temp KinEng PotEng TotEng Press c_kemax c_temax 
    7500        0.001    7.6051453    15.732729    610.08243   -2669350.4   -2668740.3    612.09343  0.035386771   -6.0292978 
7.6151453270245372806,-2668740.3311997321434,611.60776323235052132,15.743944889086606054,0.039062789518404118783,-6.0240967709539638975
    7510        0.001    7.6151453    15.743945    610.51734   -2669350.8   -2668740.3    611.60776   0.03906279   -6.0240968 
7.6251453270245370675,-2668740.3312876368873,611.54250101946524865,15.749230028324021191,0.037603627769817245252,-6.0210118775780747669
    7520        0.001    7.6251453     15.74923    610.72229   -2669351.1   -2668740.3     611.5425  0.037603628   -6.0210119 
7.6351453270245377425,-2668740.3312102179043,611.90138771274951068,15.745119331889423364,0.035616262908433074519,-6.0208060095663524791
    7530        0.001    7.6351453    15.745119    610.56289   -2669350.9   -2668740.3    611.90139  0.035616263    -6.020806 
7.6451453270245375293,-2668740.331019169651,612.40236690094911864,15.734664296689436114,0.036423540351415061023,-6.0238268640113163954
    7540        0.001    7.6451453    15.734664    610.15746   -2669350.5   -2668740.3    612.40237   0.03642354   -6.0238269 
7.6551453270245373162,-2668740.3308434076607,612.60555743179236288,15.725298285394828213,0.033795692884903173747,-6.0297778602516673985
    7550        0.001    7.6551453    15.725298    609.79427   -2669350.1   -2668740.3    612.60556  0.033795693   -6.0297779 
7.665145327024537103,-2668740.3308000965044,612.2635708517598232,15.723849866125830133,0.033878782119360295599,-6.0377225444413564759
    7560        0.001    7.6651453     15.72385     609.7381   -2669350.1   -2668740.3    612.26357  0.033878782   -6.0377225 
7.675145327024537778,-2668740.3309184219688,611.45043824990943904,15.731993098454774227,0.035828084104241937624,-6.0152702302583378469
    7570        0.001    7.6751453    15.731993    610.05388   -2669350.4   -2668740.3    611.45044  0.035828084   -6.0152702 
7.6851453270245375649,-2668740.3311215098947,610.56179791273052615,15.745103166774587322,0.027339819779896426533,-5.9674542868410487273
    7580        0.001    7.6851453    15.745103    610.56226   -2669350.9   -2668740.3     610.5618   0.02733982   -5.9674543 
7.6951453270245373517,-2668740.3312725541182,610.02758862401174156,15.75526449735066592,0.027607300450243989209,-5.93829398925264762
    7590        0.001    7.6951453    15.755264     610.9563   -2669351.3   -2668740.3    610.02759    0.0276073    -5.938294 
7.7051453270245371385,-2668740.3312486568466,610.09531901991340419,15.756666434062154281,0.032949676828970139719,-5.9330879966223486477
    7600        0.001    7.7051453    15.756666    611.01066   -2669351.3   -2668740.3    610.09532  0.032949677    -5.933088 
7.7151453270245378135,-2668740.3310362375341,610.75249779595617383,15.750357579155313204,0.030386040420089552999,-5.9523256859747837311
    7610        0.001    7.7151453    15.750358    610.76602   -2669351.1   -2668740.3     610.7525   0.03038604   -5.9523257 
7.7251453270245376004,-2668740.3307912554592,611.61107132750896653,15.744527961456453724,0.026526268906999609515,-5.9921195624735785756
    7620        0.001    7.7251453    15.744528    610.53996   -2669350.9   -2668740.3    611.61107  0.026526269   -5.9921196 
7.7351453270245373872,-2668740.330699483864,612.220343692613028,15.748656690507093714,0.030113961269271693338,-6.0455705788836793246
    7630        0.001    7.7351453    15.748657    610.70006     -2669351   -2668740.3    612.22034  0.030113961   -6.0455706 
7.7451453270245371741,-2668740.330845055636,612.35298418432500966,15.766282531521719434,0.039160389483963310708,-6.0567755513534802247
    7640        0.001    7.7451453    15.766283    611.38355   -2669351.7   -2668740.3    612.35298  0.039160389   -6.0567756 
7.7551453270245378491,-2668740.3311613830738,611.95895264845262318,15.791717477581476814,0.051398365995722249122,-6.0361668759129285533
    7650        0.001    7.7551453    15.791717    612.36987   -2669352.7   -2668740.3    611.95895  0.051398366   -6.0361669 
7.7651453270245376359,-2668740.3314894950017,611.31074565975427504,15.812530696690377141,0.049071901628862123201,-6.0329433878680864822
    7660        0.001    7.7651453    15.812531    613.17696   -2669353.5   -2668740.3    611.31075  0.049071902   -6.0329434 
7.7751453270245374227,-2668740.3316581998952,610.84601487506608919,15.815842345119573764,0.034714771927901531823,-6.0449687262330114024
    7670        0.001    7.7751453    15.815842    613.30538   -2669353.6   -2668740.3    610.84601  0.034714772   -6.0449687 
7.7851453270245372096,-2668740.3315714998171,610.88301251407301606,15.795083023470576578,0.02883302044501001235,-6.0678249693027490608
    7680        0.001    7.7851453    15.795083    612.50037   -2669352.8   -2668740.3    610.88301   0.02883302    -6.067825 
7.7951453270245378846,-2668740.3312494754791,611.46160370872678413,15.753820972601896955,0.034877835141571285338,-6.096313293348357476
    7690        0.001    7.7951453    15.753821    610.90032   -2669351.2   -2668740.3     611.4616  0.034877835   -6.0963133 
7.8051453270245376714,-2668740.3308205571957,612.277069644059452,15.704953096580362981,0.038988321391617279665,-6.1258124539797229602
    7700        0.001    7.8051453    15.704953    609.00532   -2669349.3   -2668740.3    612.27707  0.038988321   -6.1258125 
7.8151453270245374583,-2668740.3304650727659,612.9075417812869091,15.665586299012238314,0.034606453355384252102,-6.1528656509364978433
    7710        0.001    7.8151453    15.665586    607.47876   -2669347.8   -2668740.3    612.90754  0.034606453   -6.1528657 
7.8251453270245372451,-2668740.3303513787687,613.0301046538583023,15.649822007857739692,0.026613480986957996355,-6.1750862911687018908
    7720        0.001    7.8251453    15.649822    606.86746   -2669347.2   -2668740.3     613.0301  0.026613481   -6.1750863 
7.8351453270245379201,-2668740.3305778237991,612.52043585763124156,15.661942206318808957,0.026254616128740498882,-6.1696141023954718108
    7730        0.001    7.8351453    15.661942    607.33745   -2669347.7   -2668740.3    612.52044  0.026254616   -6.1696141 
7.845145327024537707,-2668740.3310533133335,611.65984992390087882,15.692883440880214252,0.026660208548017625546,-6.150773673970705957
    7740        0.001    7.8451453    15.692883    608.53729   -2669348.9   -2668740.3    611.65985  0.026660209   -6.1507737 
7.8551453270245374938,-2668740.331521497108,610.97497007558968107,15.723943525459720405,0.023803922589811312566,-6.1372931467071234479
    7750        0.001    7.8551453    15.723944    609.74173   -2669350.1   -2668740.3    610.97497  0.023803923   -6.1372931 
7.8651453270245372806,-2668740.3317287764512,610.8529935323714426,15.736709977797882942,0.021862401393663574017,-6.1304261033401603598
    7760        0.001    7.8651453     15.73671    610.23679   -2669350.6   -2668740.3    610.85299  0.021862401   -6.1304261 
7.8751453270245370675,-2668740.3315722197294,611.49013409636449978,15.722976836113494059,0.022665143463167780613,-6.1296971084399300977
    7770        0.001    7.8751453    15.722977    609.70425     -2669350   -2668740.3    611.49013  0.022665143   -6.1296971 
7.8851453270245377425,-2668740.3311503822915,612.74588795851138912,15.688809007274080898,0.025188201033571635395,-6.1332174878205849566
    7780        0.001    7.8851453    15.688809    608.37929   -2669348.7   -2668740.3    612.74589  0.025188201   -6.1332175 
7.8951453270245375293,-2668740.3306990941055,614.12417950640428899,15.650711241537447194,0.023401404892661462759,-6.1321472233634297666
    7790        0.001    7.8951453    15.650711    606.90194   -2669347.2   -2668740.3    614.12418  0.023401405   -6.1321472 
7.9051453270245373162,-2668740.3304591216147,614.98976593132147173,15.626400221584166417,0.023358356943312140463,-6.10785968016047498
    7800        0.001    7.9051453      15.6264    605.95921   -2669346.3   -2668740.3    614.98977  0.023358357   -6.1078597 
7.915145327024537103,-2668740.3305308879353,614.94492881180212862,15.625420546951671597,0.028842529966663033036,-6.0840470695412598445
    7810        0.001    7.9151453    15.625421    605.92122   -2669346.3   -2668740.3    614.94493   0.02884253   -6.0840471 
7.925145327024537778,-2668740.3308311486617,613.97906047376966399,15.645188124886450609,0.026384878519417953591,-6.061908533975266522
    7820        0.001    7.9251453    15.645188    606.68776     -2669347   -2668740.3    613.97906  0.026384879   -6.0619085 
7.9351453270245375649,-2668740.3311615632847,612.5096708504926255,15.674181595877257678,0.023148414657666011029,-6.042623887522377224
    7830        0.001    7.9351453    15.674182    607.81207   -2669348.1   -2668740.3    612.50967  0.023148415   -6.0426239 
7.9451453270245373517,-2668740.3313578320667,611.12187661744110301,15.699450620709363591,0.021360791735065994684,-6.0274527928746435279
    7840        0.001    7.9451453    15.699451    608.79195   -2669349.1   -2668740.3    611.12188  0.021360792   -6.0274528 
7.9551453270245371385,-2668740.3313652439974,610.21743470532805986,15.713124933237690328,0.034940730924881750752,-6.0176982038655664198
    7850        0.001    7.9551453    15.713125    609.32221   -2669349.7   -2668740.3    610.21743  0.034940731   -6.0176982 
7.9651453270245378135,-2668740.3312229905277,609.92530386000237286,15.71477036251440218,0.046098197923986540536,-6.014189245501837533
    7860        0.001    7.9651453     15.71477    609.38602   -2669349.7   -2668740.3     609.9253  0.046098198   -6.0141892 
7.9751453270245376004,-2668740.3310290179215,610.05010280355099894,15.70994324587388391,0.039302816627506530212,-6.0165866020292551042
    7870        0.001    7.9751453    15.709943    609.19883   -2669349.5   -2668740.3     610.0501  0.039302817   -6.0165866 
7.9851453270245373872,-2668740.330904411152,610.27309933326046121,15.706228257109589919,0.025705901520511546809,-6.023126194233920927
    7880        0.001    7.9851453    15.706228    609.05477   -2669349.4   -2668740.3     610.2731  0.025705902   -6.0231262 
7.9951453270245371741,-2668740.3308992595412,610.39408435492077842,15.708616058864405929,0.025878032470169259893,-6.0310204382021233016
    7890        0.001    7.9951453    15.708616    609.14737   -2669349.5   -2668740.3    610.39408  0.025878032   -6.0310204 
8.0051453270245378491,-2668740.3309800163843,610.40440242726879205,15.717477039222302437,0.023711062904143209717,-6.0370511405119744452
    7900        0.001    8.0051453    15.717477    609.49098   -2669349.8   -2668740.3     610.4044  0.023711063   -6.0370511 
8.0151453270245376359,-2668740.3310735709965,610.43444379351842599,15.729753605529314342,0.02232866244386689375,-6.0383355745447451213
    7910        0.001    8.0151453    15.729754    609.96704   -2669350.3   -2668740.3    610.43444  0.022328662   -6.0383356 
8.0251453270245374227,-2668740.3311126497574,610.57166565201180219,15.741849212233759658,0.024972254473746395564,-6.0329613765103369261
    7920        0.001    8.0251453    15.741849    610.43608   -2669350.8   -2668740.3    610.57167  0.024972254   -6.0329614 
8.0351453270245372096,-2668740.3310722871684,610.79749342958280067,15.752301904721859316,0.022901175599210531197,-6.0209549537073243641
    7930        0.001    8.0351453    15.752302    610.84141   -2669351.2   -2668740.3    610.79749  0.022901176    -6.020955 
8.0451453270245369964,-2668740.3309987429529,610.98328871996807266,15.76269880950524005,0.022421597754515260742,-6.0045152500404963547
    7940        0.001    8.0451453    15.762699    611.24458   -2669351.6   -2668740.3    610.98329  0.022421598   -6.0045153 
8.0551453270245367833,-2668740.3309827339835,611.01612216059879756,15.775792269106180044,0.022863932055834555734,-5.9877762551086730625
    7950        0.001    8.0551453    15.775792    611.75232   -2669352.1   -2668740.3    611.01612  0.022863932   -5.9877763 
8.0651453270245383464,-2668740.3310643434525,610.79886717536760443,15.792147570849005334,0.024060589544614225527,-5.9757680575098346409
    7960        0.001    8.0651453    15.792148    612.38654   -2669352.7   -2668740.3    610.79887   0.02406059   -5.9757681 
8.0751453270245381333,-2668740.3312174943276,610.34004532792914688,15.808501180500114103,0.027432684523565783324,-5.9727005625187130633
    7970        0.001    8.0751453    15.808501     613.0207   -2669353.4   -2668740.3    610.34005  0.027432685   -5.9727006 
8.0851453270245379201,-2668740.331349089276,609.76676116807482231,15.818883389431588782,0.027351288209329006895,-5.980340119098782381
    7980        0.001    8.0851453    15.818883     613.4233   -2669353.8   -2668740.3    609.76676  0.027351288   -5.9803401 
8.095145327024537707,-2668740.3313865405507,609.32740360514139866,15.818054734233976788,0.025021249833007928876,-5.9974073333065511804
    7990        0.001    8.0951453    15.818055    613.39117   -2669353.7   -2668740.3     609.3274   0.02502125   -5.9974073 
8.1051453270245374938,-2668740.3312901468016,609.21849849700038249,15.80457593257404092,0.022735698830076065541,-6.0202296679109270627
    8000        0.001    8.1051453    15.804576    612.86849   -2669353.2   -2668740.3     609.2185  0.022735699   -6.0202297 
Loop time of 29.1739 on 8 procs for 500 steps with 300000 atoms

Performance: 1.481 ns/day, 16.208 hours/ns, 17.139 timesteps/s
99.2% CPU use with 8 MPI tasks x 1 OpenMP threads

MPI task timing breakdown:
Section |  min time  |  avg time  |  max time  |%varavg| %total
---------------------------------------------------------------
Pair    | 27.271     | 27.54      | 27.846     |   3.6 | 94.40
Neigh   | 0.031246   | 0.031947   | 0.03291    |   0.3 |  0.11
Comm    | 0.33401    | 0.62989    | 0.89141    |  23.4 |  2.16
Output  | 0.13131    | 0.13301    | 0.13326    |   0.2 |  0.46
Modify  | 0.59811    | 0.60816    | 0.61935    |   1.0 |  2.08
Other   |            | 0.2305     |            |       |  0.79

Nlocal:    37500 ave 37680 max 37300 min
Histogram: 1 0 1 1 0 1 2 1 0 1
Nghost:    22593.1 ave 22793 max 22413 min
Histogram: 1 0 1 2 1 0 1 1 0 1
Neighs:    1.20001e+06 ave 1.21553e+06 max 1.18138e+06 min
Histogram: 1 1 0 0 2 0 1 1 0 2

Total # of neighbors = 9600077
Ave neighs/atom = 32.0003
Neighbor list builds = 1
Dangerous builds = 0
    write_data data.after_event
    if "${ttt} > ${tmax}" then quit  # Quit calculation after 6 ps, should be enough
quit
